{
  "CID": 243,
  "name": "benzoic acid",
  "synonyms": [
    "0BE368DC-6DE6-4927-AECF-E4BB2968A4A0",
    "14322-82-8",
    "1ST2501",
    "1ST2501-1000",
    "1gyx",
    "1kqb",
    "2-BENZOYL-5-METHOXYBENZOQUINONE_met032",
    "200-618-2",
    "27 - Preservatives in Cream",
    "31 - Preservatives in Mascara",
    "65-85-0",
    "760 - Preservatives",
    "8SKN0B0MIM",
    "A835250",
    "AB00949635_05",
    "AB00949635_06",
    "ACIDUM BENZOICUM [WHO-IP LATIN]",
    "AI3-0310",
    "AI3-03710",
    "AKOS000119619",
    "ANTAZOLINE_met016",
    "Acid, Benzoic",
    "Acide benzoique",
    "Acide benzoique [French]",
    "Acido benzoico",
    "Acido benzoico [Italian]",
    "Acidum benzoicum",
    "Aromatic acid",
    "Aromatic carboxylic acid",
    "B A",
    "B0062",
    "B2635",
    "BDBM197302",
    "BENZOIC ACID (EP MONOGRAPH)",
    "BENZOIC ACID (II)",
    "BENZOIC ACID (MART.)",
    "BENZOIC ACID (USP MONOGRAPH)",
    "BENZOIC ACID (USP-RS)",
    "BENZOIC ACID [EP MONOGRAPH]",
    "BENZOIC ACID [FCC]",
    "BENZOIC ACID [FHFI]",
    "BENZOIC ACID [GREEN BOOK]",
    "BENZOIC ACID [HSDB]",
    "BENZOIC ACID [II]",
    "BENZOIC ACID [JAN]",
    "BENZOIC ACID [MART.]",
    "BENZOIC ACID [MI]",
    "BENZOIC ACID [USP MONOGRAPH]",
    "BENZOIC ACID [USP-RS]",
    "BENZOIC ACID [VANDF]",
    "BENZOIC ACID [WHO-DD]",
    "BENZOIC ACID [WHO-IP]",
    "BENZOIC-4-D1 ACID",
    "BENZOICUM ACIDUM [HPUS]",
    "BIDD:ER0597",
    "BP-30148",
    "BRD-K53397409-001-11-5",
    "BRD-K53397409-001-12-3",
    "BRD-K53397409-001-13-1",
    "BS-3752",
    "Benzenecarboxylate",
    "Benzeneformate",
    "Benzeneformic acid",
    "Benzenemethanoate",
    "Benzenemethanoic acid",
    "Benzenemethonic acid",
    "Benzoate (VAN)",
    "Benzoesaeure",
    "Benzoesaeure GK",
    "Benzoesaeure GV",
    "Benzoesaeure [German]",
    "Benzoic Acid 2000 microg/mL in Dichloromethane",
    "Benzoic Acid Zone Refined (number of passes:20)",
    "Benzoic Acid,(S)",
    "Benzoic acid (7CI,8CI,9CI)",
    "Benzoic acid (JP18/USP)",
    "Benzoic acid (Standard)",
    "Benzoic acid (TN)",
    "Benzoic acid (USP:JAN)",
    "Benzoic acid (e 210)",
    "Benzoic acid (natural)",
    "Benzoic acid 100 microg/mL in Acetone",
    "Benzoic acid Solution in Acetonitrile, 1000?g/mL",
    "Benzoic acid Solution in Acetonitrile, 1000mug/mL",
    "Benzoic acid [USAN:JAN]",
    "Benzoic acid [USP:JAN]",
    "Benzoic acid, >=99.5%, FCC, FG",
    "Benzoic acid, ACS reagent",
    "Benzoic acid, ACS reagent, >=99.5%",
    "Benzoic acid, AR, >=99%",
    "Benzoic acid, European Pharmacopoeia (EP) Reference Standard",
    "Benzoic acid, LR, >=99%",
    "Benzoic acid, NIST(R) SRM(R) 39j, calorimetric standard",
    "Benzoic acid, Pharmaceutical Secondary Standard; Certified Reference Material",
    "Benzoic acid, ReagentPlus(R), 99%",
    "Benzoic acid, SAJ first grade, >=99.5%",
    "Benzoic acid, SAJ special grade, >=99.5%",
    "Benzoic acid, Standard for quantitative NMR, TraceCERT(R)",
    "Benzoic acid, USP, 99.5-100.5%",
    "Benzoic acid, United States Pharmacopeia (USP) Reference Standard",
    "Benzoic acid, Vetec(TM) reagent grade, 98%",
    "Benzoic acid, analytical standard",
    "Benzoic acid, certified reference material for titrimetry, certified by BAM according to ISO 17025, >=99.5%",
    "Benzoic acid, for calorimetrical determination (approx. 26460 J/g)",
    "Benzoic acid, meets USP testing specifications",
    "Benzoic acid, meets analytical specification of Ph. Eur., BP, USP, FCC, E210, 99.5-100.5% (alkalimetric)",
    "Benzoic acid, natural, >=99.5%, FCC, FG",
    "Benzoic acid, p.a., 99.5%",
    "Benzoic acid, purified by sublimation, >=99%",
    "Benzoic acid, puriss. p.a., ACS reagent, 99.9%",
    "Benzoic acid, puriss. p.a., ACS reagent, reag. Ph. Eur., >=99.9% (alkalimetric)",
    "Benzoic acid, tech.",
    "Benzoic acid, tested according to Ph.Eur.",
    "Benzoicacid",
    "Benzoicum Ac",
    "Benzoicum acidum",
    "C00180",
    "C00539",
    "CARBOXYLBENZENE",
    "CAS-65-85-0",
    "CCG-213088",
    "CCRIS 1893",
    "CHEBI:30746",
    "CHEMBL541",
    "CS-0008257",
    "CYCLANDELATE_met022",
    "Carboxybenzene",
    "Caswell No. 081",
    "D00038",
    "D85168",
    "DB-029471",
    "DB03793",
    "DIACYCLIC ACID",
    "DRACYCLIC ACID",
    "DTXCID80143",
    "DTXSID6020143",
    "Diacylate",
    "Diacylic acid",
    "Dracylate",
    "Dracylic acid",
    "E 210",
    "E-210",
    "E210",
    "EC 200-618-2",
    "EINECS 200-618-2",
    "EN300-18007",
    "EPA Pesticide Chemical Code 009101",
    "EUCATROPINE_met034",
    "Epitope ID:139965",
    "Eyelids Wipes",
    "F2191-0092",
    "FB33492",
    "FEMA No. 2131",
    "GLYCOPYRRONIUM BROMIDE IMPURITY D [EP IMPURITY]",
    "HA 1",
    "HA 1 (acid)",
    "HMS2092F18",
    "HMS2267D03",
    "HMS3652B03",
    "HSDB 704",
    "HY-N0216",
    "HY-N0216R",
    "HYDROUS BENZOYL PEROXIDE IMPURITY B [EP IMPURITY]",
    "INS NO.210",
    "INS-210",
    "InChI=1/C7H6O2/c8-7(9)6-4-2-1-3-5-6/h1-5H,(H,8,9",
    "Kyselina benzoova",
    "Kyselina benzoova [Czech]",
    "MBA96084",
    "MEFENAMIC ACID IMPURITY D [EP IMPURITY]",
    "METHYLAMINOLEVULINATE HYDROCHLORIDE IMPURITY I [EP]",
    "METRONIDAZOLE BENZOATE IMPURITY C [EP IMPURITY]",
    "MFCD00002398",
    "MFCD00002400",
    "MLS002415717",
    "MSK2501",
    "MSK2501-1000",
    "Melting point standard 121-123C, analytical standard",
    "Menno-florades",
    "Mettler-Toledo Calibration substance ME 18555, Benzoic acid",
    "Mettler-Toledo Calibration substance ME 18555, Benzoic acid, analytical standard, for the calibration of the thermosystem 900, traceable to primary standards (LGC)",
    "NCGC00091886-01",
    "NCGC00091886-02",
    "NCGC00091886-03",
    "NCGC00091886-05",
    "NCGC00254112-01",
    "NCGC00259952-01",
    "NS00008785",
    "NSC 149",
    "NSC-149",
    "NSC-758203",
    "NSC149",
    "NSC758203",
    "NSC7918",
    "Oracylic acid",
    "Pharmakon1600-01503001",
    "Phenylcarboxylate",
    "Phenylcarboxylic acid",
    "Provita Equiband",
    "ProvitaCombat",
    "Q191700",
    "Retarded BA",
    "Retarder BA",
    "Retarder BAX",
    "Retardex",
    "Rheumatism Diarrhea",
    "SAA21784",
    "SAMPL4, O1",
    "SBI-0206720.P001",
    "SCHEMBL1378",
    "SMR001252220",
    "SR-05000001919",
    "SR-05000001919-1",
    "SS Benzoic Acid, 2000 mug/mL in dichloromethane, analytical standard",
    "STK301730",
    "SW219833-1",
    "SY009192",
    "SY236257",
    "Salvo liquid",
    "Salvo powder",
    "Salvo, liquid",
    "ScavengePore(TM) benzoic acid, macroporous, 40-70 mesh, extent of labeling: 0.5-1.5 mmol per g loading",
    "Sodium benzoic acid",
    "Solvo powder",
    "Solvo, powder",
    "TIAPROFENIC ACID IMPURITY D [EP]",
    "TRIPELENNAMINE_met034",
    "Tenn-Plas",
    "Tennplas",
    "Tox21_202403",
    "Tox21_300180",
    "UNII-8SKN0B0MIM",
    "USEPA/OPP Pesticide Code: 009101",
    "Unisept BZA",
    "Vevovitall",
    "WLN: QVR",
    "Z57127480",
    "benzene carboxylic acid",
    "benzene-2-carboxylic acid",
    "benzenecarboxylic",
    "benzenecarboxylic acid",
    "benzoate",
    "benzoic acid",
    "benzoic aicd",
    "benzoic- acid",
    "benzoic-acid",
    "benzoic_acid",
    "bezoic acid",
    "bmse000300",
    "phenylcarboxy",
    "phenylformic acid",
    "s4161"
  ],
  "CAS": [
    "14322-82-8",
    "65-85-0"
  ],
  "M": 122.12,
  "formula": "C7H6O2",
  "SMILES": "C1=CC=C(C=C1)C(=O)O",
  "InChi": "InChI=1S/C7H6O2/c8-7(9)6-4-2-1-3-5-6/h1-5H,(H,8,9)",
  "InChiKey": "WPYMKLBDIGXBTP-UHFFFAOYSA-N",
  "logP": 1.9,
  "date": "2025-03-19"
}