{
  "CID": 2519,
  "name": "1,3,7-trimethylpurine-2,6-dione",
  "synonyms": [
    "07E4FB58-FD79-4175-8E3D-05BF96954522",
    "1 3 7-Trimethylxanthine",
    "1 3 7-trimetilksantina",
    "1,3,7-Trimethyl-2,6-dioxopurine",
    "1,3,7-Trimethyl-3,7-dihydro-1H-purine-2,6-dione",
    "1,3,7-Trimethyl-3,7-dihydro-1H-purine-2,6-dione #",
    "1,3,7-Trimethylpurine-2,6-dione",
    "1,3,7-Trimethylxanthine",
    "1,3,7-Trimethylxantine",
    "1,3,7-trimethyl-1,3,7-trihydropurine-2,6-dione",
    "1,3,7-trimethyl-1H-purine-2,6(3H,7H)-dione",
    "1,3,7-trimethyl-2,3,6,7-tetrahydro-1H-purine-2,6-dione",
    "1,3,7-trimethyl-2,6-dioxo-1,2,3,6-tetrahydropurine",
    "1,3,7-trimethyl-3,7-dihydropurine-2,6-dione",
    "1,3,7-trimethylpurine-2,6-dione",
    "1,7-Trimethyl-2,6-dioxopurine",
    "1,7-Trimethylxanthine",
    "1-methyl-Theobromine",
    "1-methyltheobromine",
    "114303-55-8",
    "1H-Purine-2, 3,7-dihydro-1,3,7-trimethyl-",
    "1H-Purine-2,6-dione, 3,7-dihydro-1,3,7-trimethyl-",
    "1gfz",
    "1l5q",
    "1l7x",
    "200-362-1",
    "2a3b",
    "3,3,7-trimethyl-1H-purine-2,6-dione",
    "3,7-Dihydro-1,3,7-trimethyl-1H-purin-2,6-dion",
    "3,7-Dihydro-1,3,7-trimethyl-1H-purin-2,6-dion (coffein)",
    "3,7-Dihydro-1,3,7-trimethyl-1H-purine-2,6-dione",
    "3,7-dihydro-1,3,7-trimethyl-1H-purine",
    "3,7-dihydro-1,3,7-trimethyl-1H-purine (9CI)",
    "357 Super Magnum",
    "3G6A5W338E",
    "3g6m",
    "5-26-13-00558 (Beilstein Handbook Reference)",
    "5-26-13-00558 (Beilstein)",
    "526 - Nutritional Analysis of Energy Drinks",
    "58-08-2",
    "7-Methyltheophylline",
    "7-methyl Theophylline",
    "829 - Tea quality parameters",
    "95789-13-2",
    "A.S.A. and Codeine Compound",
    "AB00051930-09",
    "AB00051930_10",
    "AC-12774",
    "ACon1_000085",
    "AI3-20154",
    "AKOS000121334",
    "ANHYDROUS CAFFEINE [JAN]",
    "ANOQUAN COMPONENT CAFFEINE",
    "AS-15340",
    "Alert Aid",
    "Alert-pep",
    "Alertness Aid",
    "Alertness Aid Stay Awake",
    "Allertness Aid",
    "Anacin",
    "Anacin Maximum Strength",
    "Anhydrous caffeine",
    "Anhydrous caffeine (JP15)",
    "Anhydrous caffeine (JP18)",
    "Anhydrous caffeine (TN)",
    "Awake",
    "AwakeMaximum Strength",
    "BDBM10849",
    "BIDD:ER0554",
    "BIDD:GT0632",
    "BIDD:PXR0172",
    "BIM-0050216.0001",
    "BRD-K02404261-001-02-7",
    "BRD-K02404261-001-03-5",
    "BRD-K02404261-001-07-6",
    "BRD-K02404261-001-16-7",
    "BRN 0017705",
    "BSPBio_001921",
    "Bayer Select Headache Pain (Salt/Mix)",
    "Bio1_000473",
    "Bio1_000962",
    "Bio1_001451",
    "C 0750",
    "C07481",
    "C2042",
    "C8H10N4O2",
    "CAFERGOT COMPONENT CAFFEINE",
    "CAFFEINE (EP MONOGRAPH)",
    "CAFFEINE (IARC)",
    "CAFFEINE (II)",
    "CAFFEINE (MART.)",
    "CAFFEINE (USP MONOGRAPH)",
    "CAFFEINE (USP-RS)",
    "CAFFEINE ANHYDROUS",
    "CAFFEINE ANHYDROUS [WHO-IP]",
    "CAFFEINE COMPONENT OF ANOQUAN",
    "CAFFEINE COMPONENT OF CAFERGOT",
    "CAFFEINE COMPONENT OF DARVON COMPOUND",
    "CAFFEINE COMPONENT OF DHC PLUS",
    "CAFFEINE COMPONENT OF ESGIC",
    "CAFFEINE COMPONENT OF EXCEDRIN",
    "CAFFEINE COMPONENT OF FEMCET",
    "CAFFEINE COMPONENT OF FIORICET",
    "CAFFEINE COMPONENT OF FIORINAL",
    "CAFFEINE COMPONENT OF INVAGESIC",
    "CAFFEINE COMPONENT OF INVAGESIC FORTE",
    "CAFFEINE COMPONENT OF LANORINAL",
    "CAFFEINE COMPONENT OF MEDIGESIC PLUS",
    "CAFFEINE COMPONENT OF MIGERGOT",
    "CAFFEINE COMPONENT OF NORGESIC",
    "CAFFEINE COMPONENT OF ORPHENGESIC",
    "CAFFEINE COMPONENT OF ORPHENGESIC FORTE",
    "CAFFEINE COMPONENT OF SYNALGOS-DC",
    "CAFFEINE COMPONENT OF SYNALGOS-DC-A",
    "CAFFEINE COMPONENT OF TRIAD",
    "CAFFEINE COMPONENT OF WIGRAINE",
    "CAFFEINE [EP MONOGRAPH]",
    "CAFFEINE [FCC]",
    "CAFFEINE [FHFI]",
    "CAFFEINE [HSDB]",
    "CAFFEINE [IARC]",
    "CAFFEINE [II]",
    "CAFFEINE [MART.]",
    "CAFFEINE [MI]",
    "CAFFEINE [ORANGE BOOK]",
    "CAFFEINE [USP MONOGRAPH]",
    "CAFFEINE [USP-RS]",
    "CAFFEINE [VANDF]",
    "CAFFEINE [WHO-DD]",
    "CAFFEINE [WHO-IP]",
    "CAFFEINE(3-METHYL-13C)",
    "CAFFEINUM [HPUS]",
    "CAS-58-08-2",
    "CCG-38825",
    "CCRIS 1314",
    "CFF",
    "CHEBI:27732",
    "CHEMBL113",
    "CIA28298",
    "COFFEINUM [WHO-IP LATIN]",
    "CS-M0795",
    "CU-01000012617-3",
    "Cafamil",
    "Cafecon",
    "Cafeina",
    "Cafergot (Salt/Mix)",
    "Caffedrine",
    "Caffein",
    "Caffeina",
    "Caffeina [Italian]",
    "Caffeine (USP)",
    "Caffeine (USP:BAN:JAN)",
    "Caffeine (natural)",
    "Caffeine 1.0 mg/ml in Methanol",
    "Caffeine 10 microg/mL in Methanol",
    "Caffeine 100 microg/mL in Methanol",
    "Caffeine 200 mg Tablets",
    "Caffeine 200mg",
    "Caffeine Melting Point Standard, Pharmaceutical Secondary Standard; Certified Reference Material",
    "Caffeine Tablets, 200 mg",
    "Caffeine [BAN:JAN]",
    "Caffeine [USP:BAN:JAN]",
    "Caffeine anhydrous;3,7-Dihydro-1,3,7-trimethyl-1H-purine-2,6-dione;7-Methyltheophylline",
    "Caffeine for system suitability, European Pharmacopoeia (EP) Reference Standard",
    "Caffeine melting point standard",
    "Caffeine melting point standard, United States Pharmacopeia (USP) Reference Standard",
    "Caffeine tablet, film-coated",
    "Caffeine, 1mg/ml in methanol",
    "Caffeine, BioXtra",
    "Caffeine, British Pharmacopoeia (BP) Reference Standard",
    "Caffeine, European Pharmacopoeia (EP) Reference Standard",
    "Caffeine, Pharmaceutical Secondary Standard; Certified Reference Material",
    "Caffeine, SAJ special grade, >=98.5%",
    "Caffeine, Sigma Reference Standard, vial of 250 mg",
    "Caffeine, United States Pharmacopeia (USP) Reference Standard",
    "Caffeine, anhydrous",
    "Caffeine, anhydrous, 99%, FCC, FG",
    "Caffeine, anhydrous, tested according to Ph.Eur.",
    "Caffeine, certified reference material, TraceCERT(R)",
    "Caffeine, meets USP testing specifications, anhydrous",
    "Caffeine, powder, ReagentPlus(R)",
    "Caffeine, purum, anhydrous, >=99.0% (HPLC)",
    "Caffeine, synthetic",
    "Caffeine-13C",
    "Caffeine-13C3",
    "Caffeine1508",
    "Caffeinum",
    "Caffine",
    "Cafipel",
    "Carolina Cannabis Uplifting Chewables",
    "Coffein",
    "Coffein [German]",
    "Coffeine",
    "Coffeinum",
    "Conrx Alert",
    "D00528",
    "DARVON COMPOUND COMPONENT CAFFEINE",
    "DB-023002",
    "DB00201",
    "DDA07266",
    "DHC PLUS COMPONENT CAFFEINE",
    "DHCplus",
    "DIMENHYDRINATE IMPURITY C",
    "DIMENHYDRINATE IMPURITY C (EP IMPURITY)",
    "DIMENHYDRINATE IMPURITY C [EP IMPURITY]",
    "DTXCID40232",
    "DTXSID0020232",
    "Dexitac",
    "Diurex Water Pills",
    "Diurex Water PillsXPL",
    "DiurexUltimate",
    "DiurexUltra",
    "DivK1c_000730",
    "Durvitan",
    "EC 200-362-1",
    "EINECS 200-362-1",
    "EN300-21663",
    "ESGIC COMPONENT CAFFEINE",
    "EU-0100228",
    "EXCEDRIN COMPONENT CAFFEINE",
    "Eldiatric C",
    "F3371-0262",
    "FEMA No. 2224",
    "FEMCET COMPONENT CAFFEINE",
    "FIORICET COMPONENT CAFFEINE",
    "FIORINAL COMPONENT CAFFEINE",
    "FT05891",
    "GTPL407",
    "Guaranine",
    "HB2846",
    "HMS1920I09",
    "HMS2091O11",
    "HMS2232M13",
    "HMS3260N17",
    "HMS3372J18",
    "HMS3435F10",
    "HMS3715D13",
    "HMS502E12",
    "HSDB 36",
    "Hycomine",
    "IDI1_000730",
    "INVAGESIC COMPONENT CAFFEINE",
    "INVAGESIC FORTE COMPONENT CAFFEINE",
    "InChI=1/C8H10N4O2/c1-10-4-9-6-5(10)7(13)12(3)8(14)11(6)2/h4H,1-3H",
    "Jet Alert Double Strength",
    "Jet Alert Regular Strength",
    "KBio1_000730",
    "KBio2_001781",
    "KBio2_004349",
    "KBio2_006917",
    "KBio3_001141",
    "KBioGR_002325",
    "KBioSS_001781",
    "Kafeina",
    "Kofein",
    "Kofein [Czech]",
    "Koffein",
    "Koffein [German]",
    "L000155",
    "LANORINAL COMPONENT CAFFEINE",
    "LP00228",
    "Lopac-C-0750",
    "Lopac0_000228",
    "MEDIGESIC PLUS COMPONENT CAFFEINE",
    "MEGxp0_001350",
    "MFCD00005758",
    "MIGERGOT COMPONENT CAFFEINE",
    "MLS001055341",
    "MLS001056714",
    "MLS001066409",
    "Mateina",
    "Melting point standard 235-237C, analytical standard",
    "Methyltheobromide",
    "Methyltheobromine",
    "Methyltheophylline",
    "Methylxanthine theophylline",
    "Mettler-Toledo Calibration substance ME 18872, Caffeine, analytical standard, for the calibration of the thermosystem 900, traceable to primary standards (LGC)",
    "Miudol",
    "MolMap_000054",
    "Monohydrate Caffeine",
    "Monomethyl derivative of Theophylline",
    "NCGC00015208-01",
    "NCGC00015208-02",
    "NCGC00015208-03",
    "NCGC00015208-04",
    "NCGC00015208-05",
    "NCGC00015208-06",
    "NCGC00015208-07",
    "NCGC00015208-08",
    "NCGC00015208-10",
    "NCGC00015208-11",
    "NCGC00015208-12",
    "NCGC00015208-13",
    "NCGC00015208-14",
    "NCGC00015208-15",
    "NCGC00015208-16",
    "NCGC00015208-17",
    "NCGC00015208-18",
    "NCGC00015208-20",
    "NCGC00015208-27",
    "NCGC00015208-29",
    "NCGC00090699-01",
    "NCGC00090699-02",
    "NCGC00090699-03",
    "NCGC00090699-04",
    "NCGC00090699-05",
    "NCGC00090699-06",
    "NCGC00090699-07",
    "NCGC00090699-08",
    "NCGC00090699-09",
    "NCGC00168808-01",
    "NCGC00168808-02",
    "NCGC00254057-01",
    "NCGC00259234-01",
    "NCGC00260913-01",
    "NCI-C02733",
    "NCIOpen2_008255",
    "NINDS_000730",
    "NORGESIC COMPONENT CAFFEINE",
    "NS00000273",
    "NSC 5036",
    "NSC-5036",
    "NSC-755917",
    "NSC5036",
    "NSC755917",
    "Nix Nap",
    "No-Doz",
    "NoDoz Alertness Aid",
    "NoDoz Alertness AidMaximum Strength",
    "NoDoz Caplets and Chewable Tablets",
    "NoSnooze",
    "NoSnoozeCircle K",
    "Nodaca",
    "ORPHENGESIC COMPONENT CAFFEINE",
    "ORPHENGESIC FORTE COMPONENT CAFFEINE",
    "Organex",
    "P-A-C Analgesic Tablets",
    "PDSP1_001016",
    "PDSP1_001235",
    "PDSP2_001000",
    "PDSP2_001219",
    "PENTOXIFYLLINE IMPURITY F (EP IMPURITY)",
    "PENTOXIFYLLINE IMPURITY F [EP IMPURITY]",
    "Pharmakon1600-01500155",
    "Phensal",
    "Probes1_000150",
    "Probes2_000128",
    "Propoxyphene Compound 65",
    "Propoxyphene Compound 65 (Salt/Mix)",
    "Q60235",
    "Quick-Pep",
    "Refresh'n",
    "Respia",
    "Respia (TN)",
    "SBI-0050216.P004",
    "SCHEMBL5671",
    "SDCCGMLS-0064595.P001",
    "SDCCGMLS-0064595.P002",
    "SDCCGSBI-0050216.P005",
    "SK 65 Compound",
    "SK-65 Compound",
    "SMR000326667",
    "SPBio_001222",
    "SPECTRUM1500155",
    "SR-01000075187",
    "SR-01000075187-1",
    "SR-01000075187-4",
    "SR-01000075187-7",
    "SR-01000075187-8",
    "STK177283",
    "SYNALGOS-DC COMPONENT CAFFEINE",
    "SYNALGOS-DC-A COMPONENT CAFFEINE",
    "Sohmed Alertness Aid",
    "Spectrum2_001261",
    "Spectrum3_000321",
    "Spectrum4_001782",
    "Spectrum5_000423",
    "Spectrum_001301",
    "Sprayable Energy",
    "Stay Awake",
    "Stay AwakeMaximum Strength",
    "Stim",
    "Synalgos",
    "THEOPHYLLINE IMPURITY A (EP IMPURITY)",
    "THEOPHYLLINE IMPURITY A [EP IMPURITY]",
    "THEOPHYLLINE MONOHYDRATE IMPURITY A [EP IMPURITY]",
    "TNP00310",
    "TREZIX COMPONENT CAFFEINE",
    "TRIAD COMPONENT CAFFEINE",
    "Thein",
    "Theine",
    "Theobromine Me",
    "Theobromine, 1-methyl-",
    "Theophylline Me",
    "Theophylline, 7-methyl",
    "Tirend",
    "Topcare Stay Awake",
    "Topcare Stay AwakeMaximum Strength",
    "Tox21_201685",
    "Tox21_300010",
    "Tox21_500228",
    "Tri-Aqua",
    "UNII-3G6A5W338E",
    "USEPA/OPP Pesticide Code: 000660",
    "Uplift Chewable",
    "Valumeds Maximum Strength Stay Awake",
    "Vivarin",
    "WIGRAINE COMPONENT CAFFEINE",
    "WLN: T56 BN DN FNVNVJ B1 F1 H1",
    "XCA23885",
    "Xanthine, 1,3,7-trimethyl",
    "Xanthine,3,7-trimethyl",
    "Z104507896",
    "bmse000206",
    "cafeine",
    "caffeine",
    "caffeine (1,3,7-trimethylxanthine)",
    "caffenium",
    "careone stay awake",
    "component of A.S.A. Compound (Salt/Mix)",
    "component of Dilone (Salt/Mix)",
    "component of P-A-C Compound (Salt/Mix)",
    "component of Percodan (Salt/Mix)",
    "metilteobromina",
    "teina",
    "trimetilksantina"
  ],
  "CAS": [
    "114303-55-8",
    "58-08-2",
    "95789-13-2"
  ],
  "M": 194.19,
  "formula": "C8H10N4O2",
  "SMILES": "CN1C=NC2=C1C(=O)N(C(=O)N2C)C",
  "InChi": "InChI=1S/C8H10N4O2/c1-10-4-9-6-5(10)7(13)12(3)8(14)11(6)2/h4H,1-3H3",
  "InChiKey": "RYYVLZVUVIJVGH-UHFFFAOYSA-N",
  "logP": -0.1,
  "date": "2025-03-19"
}