{
  "cid": 3102,
  "synonyms": [
    "BENZOPHENONE",
    "119-61-9",
    "diphenylmethanone",
    "Diphenyl ketone",
    "Methanone, diphenyl-",
    "Benzoylbenzene",
    "Phenyl ketone",
    "Ketone, diphenyl",
    "alpha-Oxoditane",
    "Benzene, benzoyl-",
    "alpha-Oxodiphenylmethane",
    "Diphenylketone",
    "diphenyl-methanone",
    "Kayacure bp",
    ".alpha.-Oxoditane",
    "Adjutan 6016",
    "FEMA No. 2134",
    ".alpha.-Oxodiphenylmethane",
    "Diphenyl-methanon",
    "1dzp",
    "NSC 8077",
    "MFCD00003076",
    "DTXSID0021961",
    "CHEMBL90039",
    "701M4TTV9O",
    "Diphenylmethanone (Benzophenone)",
    "CHEBI:41308",
    "NSC-8077",
    "NCGC00090787-05",
    "DTXCID101961",
    "Caswell No. 081G",
    "CAS-119-61-9",
    "CCRIS 629",
    "HSDB 6809",
    "WLN: RVR",
    "EINECS 204-337-6",
    "EPA Pesticide Chemical Code 000315",
    "BENZOPHENONE (8CI)",
    "phenylketone",
    "UNII-701M4TTV9O",
    "Benzopheneone",
    "Benzophenon",
    "benzophenone-",
    "benzoyl-benzene",
    "a-Oxoditane",
    "AI3-00754",
    "meta-benzophenone",
    "alpha -oxoditane",
    "FEMA 2134",
    "di(phenyl)methanone",
    "a-Oxodiphenylmethane",
    "METHANONE, DIPHENYL- (9CI)",
    "Ph2CO",
    "SPEEDCURE BP",
    "DAROCUR BP",
    "Diphenylmethanone, 9CI",
    "Benzophenone (Standard)",
    "alpha -oxodiphenylmethane",
    "Dimenhydrinate Impurity J",
    "BENZOPHENONE [MI]",
    "BENZOPHENONE [FCC]",
    "UPCMLD-DP071",
    "BENZOPHENONE [FHFI]",
    "BENZOPHENONE [HSDB]",
    "BENZOPHENONE [IARC]",
    "EC 204-337-6",
    "BIDD:PXR0008",
    "SCHEMBL17745",
    "MLS001055400",
    "ADK STAB 1413",
    "BENZOPHENONE [USP-RS]",
    "BENZOPHENONE [WHO-DD]",
    "BIDD:ER0022",
    "Benzophenone (diphenyl-ketone)",
    "Benzophenone (Diphenylmethanone)",
    "UPCMLD-DP071:001",
    "BDBM22726",
    "Benzophenone, analytical standard",
    "DIPHENHYDRAMINE IMPURITY E",
    "HY-Y0546R",
    "NSC8077",
    "HMS2268A24",
    "BENZOPHENONE [USP IMPURITY]",
    "Benzophenone, >=99%, FCC, FG",
    "HY-Y0546",
    "Tox21_113465",
    "Tox21_202425",
    "Tox21_300058",
    "Benzophenone, ReagentPlus(R), 99%",
    "s4438",
    "STL363250",
    "Benzophenone, for synthesis, 98.0%",
    "AKOS000119029",
    "Tox21_113465_1",
    "BENZOPHENONE  (DIPHENYL-KETONE)",
    "DB01878",
    "FB34691",
    "Benzophenone, purum, >=99.0% (GC)",
    "Benzophenone, ReagentPlus(R), >=99%",
    "NCGC00090787-01",
    "NCGC00090787-03",
    "NCGC00090787-04",
    "NCGC00090787-06",
    "NCGC00090787-07",
    "NCGC00090787-08",
    "NCGC00254183-01",
    "NCGC00259974-01",
    "BP-21212",
    "SMR000112143",
    "PHENYTOIN IMPURITY A [EP IMPURITY]",
    "Benzophenone, SAJ first grade, >=99.0%",
    "DB-061602",
    "B0083",
    "CS-0015323",
    "NS00010632",
    "Benzophenone, purified by sublimation, >=99%",
    "Benzophenone, Vetec(TM) reagent grade, 98%",
    "EN300-19181",
    "C06354",
    "D72506",
    "DIMENHYDRINATE IMPURITY J [EP IMPURITY]",
    "SBI-0647371.0001",
    "PHENYTOIN SODIUM IMPURITY A [EP IMPURITY]",
    "Q409482",
    "Melting point standard 47-49C, analytical standard",
    "PHENYTOIN IMPURITY BENZOPHENONE [USP IMPURITY]",
    "F0001-0309",
    "Z104473064",
    "Benzophenone, European Pharmacopoeia (EP) Reference Standard",
    "DIPHENHYDRAMINE HYDROCHLORIDE IMPURITY E [EP IMPURITY]",
    "Mettler-Toledo Calibration substance ME 18870, Benzophenone",
    "PHENYTOIN SODIUM IMPURITY BENZOPHENONE [USP IMPURITY]",
    "Benzophenone, United States Pharmacopeia (USP) Reference Standard",
    "HYDROCODONE HYDROGEN TARTRATE 2.5-HYDRATE IMPURITY H [EP IMPURITY]",
    "Benzophenone, Pharmaceutical Secondary Standard; Certified Reference Material",
    "InChI=1/C13H10O/c14-13(11-7-3-1-4-8-11)12-9-5-2-6-10-12/h1-10",
    "Mettler-Toledo Calibration substance ME 18870, Benzophenone, for the calibration of the thermosystem 900, traceable to primary standards (LGC)"
  ],
  "sids": [
    8590,
    73790,
    587872,
    607372,
    3132084,
    5046067,
    7886407,
    8151974,
    10505335,
    15147353,
    17389587,
    22391480,
    24854394,
    24866768,
    24868019,
    24892133,
    24900871,
    26697326,
    26752802,
    26752803,
    29222245,
    32720033,
    32732090,
    37627186,
    38273335,
    38277336,
    38477012,
    46391755,
    46488004,
    46507784,
    48415153,
    48417361,
    48422932,
    48424867,
    49816673,
    49846540,
    49854810,
    50362994,
    53787465,
    57321609,
    85084074,
    87563284,
    88520015,
    93165474,
    93167026,
    99246442,
    103300986,
    104302528,
    104667452,
    117561334,
    117688935,
    124812071,
    124890000,
    124890001,
    124890002,
    126533523,
    126589420,
    126650038,
    126687875,
    128012801,
    128199900,
    128406471,
    128415301,
    128519440,
    128625928,
    129190184,
    129642974,
    129815690,
    129836107,
    131296127,
    134397767,
    134974554,
    135699277,
    136913642,
    142301035,
    143419573,
    143719552,
    144207014,
    144209623,
    144210378,
    152195779,
    152236116,
    160965104,
    162176668,
    162303545,
    163303414,
    163802398,
    164116139,
    164806799,
    164846131,
    167377537,
    170465649,
    172701720,
    174555343,
    175266049,
    176325711,
    179094194,
    201760090,
    202818675,
    204379739,
    221672761,
    223368986,
    223469595,
    223656069,
    223738071,
    225229881,
    226407820,
    248846957,
    249973108,
    252262663,
    252404685,
    252827780,
    254764306,
    254822892,
    255951588,
    275542879,
    276935032,
    292420695,
    310267376,
    312230366,
    312597803,
    312673525,
    315340447,
    315444144,
    315672763,
    316394357,
    316605458,
    316962598,
    318168754,
    319062064,
    321906557,
    322090903,
    329731916,
    329747561,
    329748904,
    329749864,
    329757586,
    329765127,
    329773220,
    329823211,
    329828040,
    329829658,
    329831072,
    335986257,
    336295160,
    340508021,
    340515811,
    340519746,
    341140252,
    342506307,
    346440401,
    346695275,
    347756041,
    348287382,
    348350509,
    348616040,
    349996835,
    354316196,
    355147974,
    363594996,
    363895360,
    363898579,
    374058488,
    374150304,
    375091985,
    375670518,
    375759566,
    376249899,
    376254646,
    376578912,
    377354925,
    377872036,
    381000863,
    381013933,
    381329300,
    381410393,
    382153945,
    383146754,
    385611365,
    385783498,
    385877478,
    385877479,
    385915100,
    385915101,
    385915102,
    386276814,
    386393496,
    386620333,
    386986705,
    387151123,
    387195555,
    387208258,
    402300737,
    402300738,
    402411792,
    403030753,
    404744064,
    404754739,
    404780625,
    405042596,
    406168267,
    406218192,
    406780291,
    406856950,
    419489981,
    433833795,
    433969238,
    434143543,
    434440058,
    438449410,
    438468343,
    438469837,
    438470323,
    438474325,
    438518685,
    438555738,
    439515930,
    440822333,
    441081699,
    441130922,
    441328156,
    441389106,
    441615807,
    441619329,
    443634029,
    443817593,
    445693887,
    446173462,
    458766125,
    459201926,
    459208847,
    459209712,
    459209713,
    459217963,
    459218407,
    459220904,
    459220905,
    459257941,
    459257942,
    462059889,
    463929818,
    464737060,
    468589822,
    468793809,
    469488651,
    470232144,
    472478131,
    472641291,
    473089448,
    473737700,
    475362653,
    475777062,
    478136618,
    478253554,
    479834537,
    479837842,
    482177984,
    483658407,
    483706950,
    484260692,
    485241315,
    485437305,
    486037087,
    486320028,
    486324631,
    486325606,
    486412221,
    488318751,
    489029905,
    490648338,
    491495530,
    491747135,
    495972424,
    495972425,
    495972426,
    496129714,
    496132209,
    500184638,
    500583052,
    503288760,
    504097538,
    504700950,
    504750636,
    505091915,
    505098451,
    505214725,
    506011651
  ],
  "aids": [
    155,
    157,
    161,
    165,
    167,
    175,
    248,
    328,
    421,
    426,
    427,
    433,
    434,
    435,
    445,
    530,
    540,
    541,
    542,
    543,
    544,
    545,
    546,
    584,
    585,
    595,
    596,
    603,
    605,
    654,
    655,
    656,
    657,
    658,
    659,
    660,
    661,
    662,
    663,
    664,
    665,
    666,
    667,
    875,
    880,
    881,
    884,
    885,
    886,
    887,
    889,
    892,
    893,
    894,
    900,
    902,
    912,
    921,
    923,
    924,
    925,
    926,
    938,
    946,
    947,
    948,
    955,
    960,
    961,
    962,
    963,
    964,
    965,
    966,
    967,
    968,
    969,
    970,
    971,
    972,
    973,
    974,
    975,
    976,
    977,
    978,
    979,
    980,
    981,
    982,
    983,
    984,
    985,
    986,
    987,
    988,
    989,
    993,
    994,
    995,
    999,
    1004,
    1030,
    1188,
    1379,
    1452,
    1457,
    1458,
    1460,
    1463,
    1467,
    1468,
    1469,
    1471,
    1476,
    1477,
    1478,
    1479,
    1490,
    1766,
    1768,
    1811,
    1850,
    1865,
    1899,
    1906,
    1947,
    1948,
    1950,
    1962,
    1974,
    1987,
    2016,
    2023,
    2025,
    2029,
    2052,
    2057,
    2066,
    2099,
    2101,
    2107,
    2112,
    2120,
    2129,
    2130,
    2174,
    2177,
    2234,
    2235,
    2280,
    2300,
    2314,
    2315,
    2380,
    2391,
    2435,
    2445,
    2451,
    2462,
    2472,
    2517,
    2520,
    2521,
    2524,
    2528,
    2540,
    2544,
    2546,
    2549,
    2551,
    2557,
    2599,
    2606,
    2629,
    2650,
    2661,
    2676,
    2685,
    2690,
    2716,
    2717,
    2718,
    2751,
    2796,
    2797,
    2805,
    2806,
    2825,
    23959,
    23960,
    23963,
    23965,
    23968,
    23970,
    23971,
    23973,
    26296,
    239122,
    239166,
    239167,
    239197,
    239272,
    255211,
    351452,
    351453,
    351454,
    351455,
    351458,
    351459,
    351461,
    434955,
    434962,
    434973,
    434989,
    435003,
    435005,
    435022,
    435030,
    443993,
    449728,
    449762,
    449763,
    463079,
    463082,
    463104,
    463141,
    463190,
    463195,
    463210,
    463212,
    463254,
    475504,
    475505,
    485270,
    485272,
    485273,
    485275,
    485281,
    485290,
    485294,
    485297,
    485298,
    485313,
    485341,
    485344,
    485346,
    485347,
    485349,
    485353,
    485358,
    485360,
    485364,
    485367,
    488837,
    488839,
    488847,
    488862,
    488890,
    488895,
    488896,
    488899,
    488965,
    488966,
    488975,
    488977,
    489030,
    489031,
    492947,
    492953,
    492956,
    492972,
    493005,
    493008,
    493011,
    493012,
    493014,
    493036,
    493056,
    493084,
    493087,
    493091,
    493098,
    493131,
    493160,
    493187,
    493244,
    504326,
    504327,
    504329,
    504332,
    504333,
    504339,
    504357,
    504406,
    504411,
    504414,
    504423,
    504441,
    504444,
    504454,
    504462,
    504466,
    504467,
    504490,
    504523,
    504558,
    504577,
    504582,
    504621,
    504634,
    504648,
    504651,
    504652,
    504660,
    504690,
    504692,
    504700,
    504706,
    504707,
    504720,
    504734,
    504766,
    504775,
    504803,
    504810,
    504812,
    504832,
    504834,
    504842,
    504845,
    504847,
    504884,
    504891,
    504894,
    504937,
    540253,
    540263,
    540267,
    540275,
    540277,
    540295,
    540303,
    540308,
    540317,
    540336,
    540364,
    588334,
    588335,
    588342,
    588352,
    588354,
    588358,
    588405,
    588413,
    588436,
    588453,
    588456,
    588458,
    588473,
    588475,
    588478,
    588489,
    588492,
    588493,
    588497,
    588499,
    588501,
    588511,
    588513,
    588514,
    588515,
    588516,
    588526,
    588527,
    588532,
    588533,
    588534,
    588535,
    588536,
    588537,
    588541,
    588543,
    588544,
    588545,
    588546,
    588547,
    588549,
    588579,
    588590,
    588591,
    588621,
    588627,
    588664,
    588674,
    588675,
    588676,
    588689,
    588692,
    588726,
    588727,
    588795,
    588814,
    588819,
    588832,
    588834,
    588850,
    588852,
    588855,
    588856,
    602123,
    602141,
    602162,
    602163,
    602179,
    602229,
    602233,
    602244,
    602247,
    602248,
    602250,
    602252,
    602261,
    602274,
    602281,
    602310,
    602313,
    602329,
    602332,
    602340,
    602342,
    602346,
    602363,
    602393,
    602396,
    602399,
    602405,
    602410,
    602429,
    602438,
    602440,
    602449,
    602481,
    623870,
    623877,
    623901,
    624030,
    624037,
    624038,
    624040,
    624125,
    624126,
    624127,
    624168,
    624169,
    624170,
    624171,
    624172,
    624173,
    624178,
    624202,
    624204,
    624246,
    624256,
    624263,
    624267,
    624268,
    624287,
    624288,
    624291,
    624296,
    624297,
    624304,
    624319,
    624330,
    624352,
    624354,
    624377,
    624414,
    624415,
    624416,
    624417,
    624418,
    624463,
    624464,
    624465,
    624466,
    624467,
    624483,
    651550,
    651560,
    651572,
    651602,
    651631,
    651632,
    651633,
    651634,
    651635,
    651636,
    651640,
    651644,
    651647,
    651654,
    651658,
    651661,
    651687,
    651699,
    651702,
    651704,
    651710,
    651711,
    651718,
    651719,
    651723,
    651724,
    651725,
    651741,
    651743,
    651749,
    651751,
    651754,
    651755,
    651757,
    651758,
    651768,
    651777,
    651778,
    651800,
    651802,
    651819,
    651820,
    651821,
    651838,
    651957,
    651958,
    651965,
    651999,
    652010,
    652017,
    652025,
    652039,
    652048,
    652051,
    652054,
    652067,
    652104,
    652105,
    652106,
    652115,
    652126,
    652162,
    652163,
    652197,
    652257,
    684467,
    686940,
    686964,
    686970,
    686971,
    686978,
    686979,
    686996,
    687014,
    687016,
    720504,
    720508,
    720509,
    720511,
    720516,
    720532,
    720533,
    720542,
    720543,
    720551,
    720552,
    720553,
    720579,
    720580,
    720582,
    720596,
    720634,
    720635,
    720636,
    720637,
    720648,
    720652,
    720653,
    720659,
    720674,
    720675,
    720678,
    720679,
    720680,
    720681,
    720682,
    720683,
    720684,
    720685,
    720686,
    720687,
    720691,
    720692,
    720693,
    720700,
    720702,
    720704,
    720706,
    720707,
    720708,
    720709,
    720711,
    720719,
    720725,
    743012,
    743014,
    743015,
    743033,
    743035,
    743036,
    743040,
    743041,
    743042,
    743053,
    743054,
    743063,
    743064,
    743065,
    743066,
    743067,
    743069,
    743074,
    743075,
    743077,
    743078,
    743079,
    743080,
    743081,
    743083,
    743084,
    743085,
    743086,
    743091,
    743094,
    743122,
    743126,
    743139,
    743140,
    743191,
    743194,
    743199,
    743202,
    743203,
    743209,
    743210,
    743211,
    743212,
    743213,
    743215,
    743217,
    743218,
    743219,
    743220,
    743221,
    743222,
    743223,
    743224,
    743225,
    743226,
    743227,
    743228,
    743239,
    743240,
    743241,
    743242,
    743244,
    743255,
    743266,
    743269,
    743279,
    743288,
    743292,
    743398,
    977608,
    1053175,
    1053197,
    1117298,
    1117304,
    1117305,
    1117310,
    1117312,
    1117314,
    1117326,
    1117329,
    1117336,
    1117340,
    1117341,
    1117342,
    1117343,
    1117346,
    1159509,
    1159515,
    1159516,
    1159517,
    1159518,
    1159519,
    1159520,
    1159521,
    1159523,
    1159524,
    1159525,
    1159526,
    1159527,
    1159528,
    1159529,
    1159531,
    1159551,
    1159552,
    1159553,
    1159555,
    1159606,
    1159614,
    1224834,
    1224835,
    1224836,
    1224837,
    1224838,
    1224839,
    1224840,
    1224841,
    1224842,
    1224843,
    1224844,
    1224845,
    1224846,
    1224847,
    1224848,
    1224849,
    1224857,
    1224859,
    1224865,
    1224867,
    1224868,
    1224869,
    1224870,
    1224871,
    1224872,
    1224873,
    1224874,
    1224875,
    1224876,
    1224877,
    1224878,
    1224879,
    1224880,
    1224881,
    1224882,
    1224883,
    1224884,
    1224885,
    1224886,
    1224887,
    1224888,
    1224889,
    1224890,
    1224892,
    1224893,
    1224894,
    1224895,
    1224896,
    1259241,
    1259242,
    1259243,
    1259244,
    1259247,
    1259248,
    1259251,
    1259309,
    1259311,
    1259313,
    1259318,
    1259344,
    1259364,
    1259365,
    1259366,
    1259367,
    1259368,
    1259369,
    1259377,
    1259378,
    1259379,
    1259380,
    1259381,
    1259382,
    1259383,
    1259384,
    1259385,
    1259386,
    1259387,
    1259388,
    1259390,
    1259391,
    1259392,
    1259393,
    1259394,
    1259395,
    1259396,
    1259400,
    1259401,
    1259402,
    1259403,
    1259404,
    1259407,
    1259408,
    1259411,
    1259415,
    1272365,
    1296008,
    1296009,
    1331299,
    1331300,
    1331301,
    1345084,
    1345199,
    1346378,
    1346428,
    1346784,
    1346795,
    1346798,
    1346799,
    1346824,
    1346829,
    1346859,
    1346877,
    1346891,
    1346924,
    1346977,
    1346978,
    1346979,
    1346980,
    1346981,
    1346982,
    1346986,
    1346987,
    1347030,
    1347031,
    1347032,
    1347033,
    1347034,
    1347035,
    1347036,
    1347037,
    1347038,
    1347041,
    1347053,
    1347055,
    1347056,
    1347070,
    1347071,
    1347075,
    1347076,
    1347082,
    1347083,
    1347085,
    1347086,
    1347089,
    1347090,
    1347091,
    1347092,
    1347093,
    1347094,
    1347095,
    1347096,
    1347097,
    1347098,
    1347099,
    1347100,
    1347101,
    1347102,
    1347103,
    1347104,
    1347105,
    1347106,
    1347107,
    1347108,
    1347120,
    1347131,
    1347154,
    1347395,
    1347397,
    1347398,
    1347399,
    1347407,
    1347424,
    1347425,
    1479145,
    1479147,
    1479149,
    1479150,
    1508616,
    1508620,
    1508623,
    1508624,
    1508630,
    1603229,
    1645839,
    1645840,
    1645841,
    1645842,
    1645845,
    1645846,
    1645851,
    1645870,
    1645876,
    1645877,
    1645882,
    1645883,
    1645886,
    1645887,
    1671188,
    1671190,
    1671193,
    1671194,
    1671196,
    1671197,
    1671198,
    1671199,
    1671200,
    1671201,
    1671463,
    1671498,
    1745845,
    1745856,
    1745857,
    1794731,
    1794732,
    1794733,
    1794735,
    1794736,
    1794738,
    1794739,
    1794740,
    1794742,
    1794745,
    1794748,
    1794751,
    1794752,
    1794753,
    1794754,
    1794755,
    1794756,
    1794757,
    1794758,
    1794759,
    1794760,
    1794763,
    1794764,
    1794765,
    1794766,
    1794767,
    1794768,
    1794769,
    1794771,
    1794772,
    1794773,
    1794774,
    1794775,
    1794776,
    1794777,
    1794778,
    1794779,
    1794780,
    1794781,
    1794782,
    1794783,
    1794784,
    1794785,
    1794786,
    1794787,
    1794788,
    1794789,
    1794790,
    1794792,
    1794793,
    1794794,
    1794795,
    1794796,
    1794798,
    1794799,
    1794800,
    1798224,
    1845191,
    1845192,
    1919968,
    1919969,
    1919970,
    1920062,
    1920063,
    1920064,
    1920065,
    1920067,
    1920068,
    1952187,
    1952188,
    1952190,
    1952192,
    1952193,
    1952194,
    1963577,
    1963578,
    1963579,
    1963580,
    1963581,
    1963582,
    1963583,
    1963584,
    1963585,
    1963596
  ],
  "elements": [
    "O",
    "C",
    "C",
    "C",
    "C",
    "C",
    "C",
    "C",
    "C",
    "C",
    "C",
    "C",
    "C",
    "C",
    "H",
    "H",
    "H",
    "H",
    "H",
    "H",
    "H",
    "H",
    "H",
    "H"
  ],
  "atoms": [
    {
      "aid": 1,
      "element": "O",
      "x": 2,
      "y": 1,
      "z": null,
      "charge": 0
    },
    {
      "aid": 2,
      "element": "C",
      "x": 2.866,
      "y": -0.5,
      "z": null,
      "charge": 0
    },
    {
      "aid": 3,
      "element": "C",
      "x": 3.732,
      "y": 1,
      "z": null,
      "charge": 0
    },
    {
      "aid": 4,
      "element": "C",
      "x": 2.866,
      "y": 0.5,
      "z": null,
      "charge": 0
    },
    {
      "aid": 5,
      "element": "C",
      "x": 2,
      "y": -1,
      "z": null,
      "charge": 0
    },
    {
      "aid": 6,
      "element": "C",
      "x": 4.5981,
      "y": 0.5,
      "z": null,
      "charge": 0
    },
    {
      "aid": 7,
      "element": "C",
      "x": 3.732,
      "y": -1,
      "z": null,
      "charge": 0
    },
    {
      "aid": 8,
      "element": "C",
      "x": 3.732,
      "y": 2,
      "z": null,
      "charge": 0
    },
    {
      "aid": 9,
      "element": "C",
      "x": 2,
      "y": -2,
      "z": null,
      "charge": 0
    },
    {
      "aid": 10,
      "element": "C",
      "x": 5.4641,
      "y": 1,
      "z": null,
      "charge": 0
    },
    {
      "aid": 11,
      "element": "C",
      "x": 3.732,
      "y": -2,
      "z": null,
      "charge": 0
    },
    {
      "aid": 12,
      "element": "C",
      "x": 4.5981,
      "y": 2.5,
      "z": null,
      "charge": 0
    },
    {
      "aid": 13,
      "element": "C",
      "x": 2.866,
      "y": -2.5,
      "z": null,
      "charge": 0
    },
    {
      "aid": 14,
      "element": "C",
      "x": 5.4641,
      "y": 2,
      "z": null,
      "charge": 0
    },
    {
      "aid": 15,
      "element": "H",
      "x": 1.4631,
      "y": -0.69,
      "z": null,
      "charge": 0
    },
    {
      "aid": 16,
      "element": "H",
      "x": 4.5981,
      "y": -0.12,
      "z": null,
      "charge": 0
    },
    {
      "aid": 17,
      "element": "H",
      "x": 4.269,
      "y": -0.69,
      "z": null,
      "charge": 0
    },
    {
      "aid": 18,
      "element": "H",
      "x": 3.1951,
      "y": 2.31,
      "z": null,
      "charge": 0
    },
    {
      "aid": 19,
      "element": "H",
      "x": 1.4631,
      "y": -2.31,
      "z": null,
      "charge": 0
    },
    {
      "aid": 20,
      "element": "H",
      "x": 6.001,
      "y": 0.69,
      "z": null,
      "charge": 0
    },
    {
      "aid": 21,
      "element": "H",
      "x": 4.269,
      "y": -2.31,
      "z": null,
      "charge": 0
    },
    {
      "aid": 22,
      "element": "H",
      "x": 4.5981,
      "y": 3.12,
      "z": null,
      "charge": 0
    },
    {
      "aid": 23,
      "element": "H",
      "x": 2.866,
      "y": -3.12,
      "z": null,
      "charge": 0
    },
    {
      "aid": 24,
      "element": "H",
      "x": 6.001,
      "y": 2.31,
      "z": null,
      "charge": 0
    }
  ],
  "bonds": [
    {
      "aid1": 1,
      "aid2": 4,
      "order": 2
    },
    {
      "aid1": 2,
      "aid2": 4,
      "order": 1
    },
    {
      "aid1": 2,
      "aid2": 5,
      "order": 2
    },
    {
      "aid1": 2,
      "aid2": 7,
      "order": 1
    },
    {
      "aid1": 3,
      "aid2": 4,
      "order": 1
    },
    {
      "aid1": 3,
      "aid2": 6,
      "order": 2
    },
    {
      "aid1": 3,
      "aid2": 8,
      "order": 1
    },
    {
      "aid1": 5,
      "aid2": 9,
      "order": 1
    },
    {
      "aid1": 5,
      "aid2": 15,
      "order": 1
    },
    {
      "aid1": 6,
      "aid2": 10,
      "order": 1
    },
    {
      "aid1": 6,
      "aid2": 16,
      "order": 1
    },
    {
      "aid1": 7,
      "aid2": 11,
      "order": 2
    },
    {
      "aid1": 7,
      "aid2": 17,
      "order": 1
    },
    {
      "aid1": 8,
      "aid2": 12,
      "order": 2
    },
    {
      "aid1": 8,
      "aid2": 18,
      "order": 1
    },
    {
      "aid1": 9,
      "aid2": 13,
      "order": 2
    },
    {
      "aid1": 9,
      "aid2": 19,
      "order": 1
    },
    {
      "aid1": 10,
      "aid2": 14,
      "order": 2
    },
    {
      "aid1": 10,
      "aid2": 20,
      "order": 1
    },
    {
      "aid1": 11,
      "aid2": 13,
      "order": 1
    },
    {
      "aid1": 11,
      "aid2": 21,
      "order": 1
    },
    {
      "aid1": 12,
      "aid2": 14,
      "order": 1
    },
    {
      "aid1": 12,
      "aid2": 22,
      "order": 1
    },
    {
      "aid1": 13,
      "aid2": 23,
      "order": 1
    },
    {
      "aid1": 14,
      "aid2": 24,
      "order": 1
    }
  ],
  "coordinate_type": "2d",
  "charge": 0,
  "molecular_formula": "C13H10O",
  "molecular_weight": "182.22",
  "canonical_smiles": "C1=CC=C(C=C1)C(=O)C2=CC=CC=C2",
  "isomeric_smiles": "C1=CC=C(C=C1)C(=O)C2=CC=CC=C2",
  "inchi": "InChI=1S/C13H10O/c14-13(11-7-3-1-4-8-11)12-9-5-2-6-10-12/h1-10H",
  "inchikey": "RWCCWEUUXYIKHB-UHFFFAOYSA-N",
  "iupac_name": "diphenylmethanone",
  "xlogp": 3.4,
  "exact_mass": "182.073164938",
  "monoisotopic_mass": "182.073164938",
  "tpsa": 17.1,
  "complexity": 165,
  "h_bond_donor_count": 0,
  "h_bond_acceptor_count": 1,
  "rotatable_bond_count": 2,
  "fingerprint": "00000371C0702000000000000000000000000000000000000000306000000000000000014000001A00000000000C048098003000800000008802A05200000200002400000888010000C80820328015108021002080000889870888C08E00000000000000000000000000000000000000000000",
  "cactvs_fingerprint": "11000000011100000010000000000000000000000000000000000000000000000000000000000000000000000000000000000000000000000000000000000000000000000000000000000000000000000000000000000000001100000110000000000000000000000000000000000000000000000000000000000000000000010100000000000000000000000001101000000000000000000000000000000000000000000000110000000100100000001001100000000000001100000000000010000000000000000000000000000000100010000000001010100000010100100000000000000000000000100000000000000000001001000000000000000000000010001000100000000001000000000000000011001000000010000010000000110010100000000001010100010000100000000010000100000000001000001000000000000000000010001000100110000111000010001000100011000000100011100000000000000000000000000000000000000000000000000000000000000000000000000000000000000000000000000000000000000000000000000000000000000000000000000000000000000000000000000",
  "heavy_atom_count": 14,
  "isotope_atom_count": 0,
  "atom_stereo_count": 0,
  "defined_atom_stereo_count": 0,
  "undefined_atom_stereo_count": 0,
  "bond_stereo_count": 0,
  "defined_bond_stereo_count": 0,
  "undefined_bond_stereo_count": 0,
  "covalent_unit_count": 1,
  "volume_3d": null,
  "multipoles_3d": null,
  "conformer_rmsd_3d": null,
  "effective_rotor_count_3d": null,
  "pharmacophore_features_3d": null,
  "mmff94_partial_charges_3d": null,
  "mmff94_energy_3d": null,
  "conformer_id_3d": null,
  "shape_selfoverlap_3d": null,
  "feature_selfoverlap_3d": null,
  "shape_fingerprint_3d": null
}