{
  "CID": 3102,
  "name": "diphenylmethanone",
  "synonyms": [
    ".alpha.-Oxodiphenylmethane",
    ".alpha.-Oxoditane",
    "119-61-9",
    "1dzp",
    "701M4TTV9O",
    "ADK STAB 1413",
    "AI3-00754",
    "AKOS000119029",
    "Adjutan 6016",
    "B0083",
    "BDBM22726",
    "BENZOPHENONE",
    "BENZOPHENONE  (DIPHENYL-KETONE)",
    "BENZOPHENONE (8CI)",
    "BENZOPHENONE [FCC]",
    "BENZOPHENONE [FHFI]",
    "BENZOPHENONE [HSDB]",
    "BENZOPHENONE [IARC]",
    "BENZOPHENONE [MI]",
    "BENZOPHENONE [USP IMPURITY]",
    "BENZOPHENONE [USP-RS]",
    "BENZOPHENONE [WHO-DD]",
    "BIDD:ER0022",
    "BIDD:PXR0008",
    "BP-21212",
    "Benzene, benzoyl-",
    "Benzopheneone",
    "Benzophenon",
    "Benzophenone (Diphenylmethanone)",
    "Benzophenone (Standard)",
    "Benzophenone (diphenyl-ketone)",
    "Benzophenone, >=99%, FCC, FG",
    "Benzophenone, European Pharmacopoeia (EP) Reference Standard",
    "Benzophenone, Pharmaceutical Secondary Standard; Certified Reference Material",
    "Benzophenone, ReagentPlus(R), 99%",
    "Benzophenone, ReagentPlus(R), >=99%",
    "Benzophenone, SAJ first grade, >=99.0%",
    "Benzophenone, United States Pharmacopeia (USP) Reference Standard",
    "Benzophenone, Vetec(TM) reagent grade, 98%",
    "Benzophenone, analytical standard",
    "Benzophenone, for synthesis, 98.0%",
    "Benzophenone, purified by sublimation, >=99%",
    "Benzophenone, purum, >=99.0% (GC)",
    "Benzoylbenzene",
    "C06354",
    "CAS-119-61-9",
    "CCRIS 629",
    "CHEBI:41308",
    "CHEMBL90039",
    "CS-0015323",
    "Caswell No. 081G",
    "D72506",
    "DAROCUR BP",
    "DB-061602",
    "DB01878",
    "DIMENHYDRINATE IMPURITY J [EP IMPURITY]",
    "DIPHENHYDRAMINE HYDROCHLORIDE IMPURITY E [EP IMPURITY]",
    "DIPHENHYDRAMINE IMPURITY E",
    "DTXCID101961",
    "DTXSID0021961",
    "Dimenhydrinate Impurity J",
    "Diphenyl ketone",
    "Diphenyl-methanon",
    "Diphenylketone",
    "Diphenylmethanone (Benzophenone)",
    "Diphenylmethanone, 9CI",
    "EC 204-337-6",
    "EINECS 204-337-6",
    "EN300-19181",
    "EPA Pesticide Chemical Code 000315",
    "F0001-0309",
    "FB34691",
    "FEMA 2134",
    "FEMA No. 2134",
    "HMS2268A24",
    "HSDB 6809",
    "HY-Y0546",
    "HY-Y0546R",
    "HYDROCODONE HYDROGEN TARTRATE 2.5-HYDRATE IMPURITY H [EP IMPURITY]",
    "InChI=1/C13H10O/c14-13(11-7-3-1-4-8-11)12-9-5-2-6-10-12/h1-10",
    "Kayacure bp",
    "Ketone, diphenyl",
    "METHANONE, DIPHENYL- (9CI)",
    "MFCD00003076",
    "MLS001055400",
    "Melting point standard 47-49C, analytical standard",
    "Methanone, diphenyl-",
    "Mettler-Toledo Calibration substance ME 18870, Benzophenone",
    "Mettler-Toledo Calibration substance ME 18870, Benzophenone, for the calibration of the thermosystem 900, traceable to primary standards (LGC)",
    "NCGC00090787-01",
    "NCGC00090787-03",
    "NCGC00090787-04",
    "NCGC00090787-05",
    "NCGC00090787-06",
    "NCGC00090787-07",
    "NCGC00090787-08",
    "NCGC00254183-01",
    "NCGC00259974-01",
    "NS00010632",
    "NSC 8077",
    "NSC-8077",
    "NSC8077",
    "PHENYTOIN IMPURITY A [EP IMPURITY]",
    "PHENYTOIN IMPURITY BENZOPHENONE [USP IMPURITY]",
    "PHENYTOIN SODIUM IMPURITY A [EP IMPURITY]",
    "PHENYTOIN SODIUM IMPURITY BENZOPHENONE [USP IMPURITY]",
    "Ph2CO",
    "Phenyl ketone",
    "Q409482",
    "SBI-0647371.0001",
    "SCHEMBL17745",
    "SMR000112143",
    "SPEEDCURE BP",
    "STL363250",
    "Tox21_113465",
    "Tox21_113465_1",
    "Tox21_202425",
    "Tox21_300058",
    "UNII-701M4TTV9O",
    "UPCMLD-DP071",
    "UPCMLD-DP071:001",
    "WLN: RVR",
    "Z104473064",
    "a-Oxodiphenylmethane",
    "a-Oxoditane",
    "alpha -oxodiphenylmethane",
    "alpha -oxoditane",
    "alpha-Oxodiphenylmethane",
    "alpha-Oxoditane",
    "benzophenone-",
    "benzoyl-benzene",
    "di(phenyl)methanone",
    "diphenyl-methanone",
    "diphenylmethanone",
    "meta-benzophenone",
    "phenylketone",
    "s4438"
  ],
  "CAS": [
    "119-61-9"
  ],
  "M": 182.22,
  "formula": "C13H10O",
  "SMILES": "C1=CC=C(C=C1)C(=O)C2=CC=CC=C2",
  "InChi": "InChI=1S/C13H10O/c14-13(11-7-3-1-4-8-11)12-9-5-2-6-10-12/h1-10H",
  "InChiKey": "RWCCWEUUXYIKHB-UHFFFAOYSA-N",
  "logP": 3.4,
  "date": "2025-03-19"
}