{
  "CID": 5281,
  "name": "octadecanoic acid",
  "synonyms": [
    "1-Heptadecanecarboxylate",
    "1-Heptadecanecarboxylic acid",
    "17FA",
    "18639-67-3",
    "1ST1716",
    "1ST1716-1000",
    "1hmr",
    "1hmt",
    "200-313-4",
    "3v2p",
    "4-02-00-01206 (Beilstein Handbook Reference)",
    "400JB9103-88",
    "4ELV7Z65AP",
    "4fnn",
    "57-11-4",
    "875D",
    "A 1760",
    "AFCO-Chem B 65",
    "AI3-00909",
    "AKOS005716958",
    "Acidum stearinicul",
    "Adeka sa 300",
    "BBL012224",
    "BDBM50240485",
    "BRN 0608585",
    "Barolub FTA",
    "Bassinic acid",
    "C-Lube 10",
    "C01530",
    "C18:0",
    "CAS-57-11-4",
    "CCG-267314",
    "CCRIS 2305",
    "CD7993EA-AD14-452A-A907-33376CC98790",
    "CELLBN FIRST CARE CLEANSER",
    "CELOZOLE",
    "CH3-(CH2)16-COOH",
    "CH3-[CH2]16-COOH",
    "CHEBI:28842",
    "CHEMBL46403",
    "CS-0021598",
    "Caswell No. 801D",
    "Century 1210",
    "Century 1220",
    "Century 1224",
    "Century 1230",
    "Century 1240",
    "Cetylacetic acid",
    "D00119",
    "DB03193",
    "DTXCID301642",
    "DTXSID8021642",
    "Dar-chem 14",
    "Dervacid 3155",
    "Doctor Plus",
    "E570",
    "EC 200-313-4",
    "EC 250-178-0",
    "EINECS 200-313-4",
    "EINECS 250-178-0",
    "EN300-19730",
    "EPA Pesticide Chemical Code 079082",
    "Edenor C 18/98",
    "Edenor C18",
    "Edenor HT-JG 60",
    "Edenor ST 1",
    "Edenor ST 20",
    "Edenor htict-n",
    "Emersol 110 (Salt/Mix)",
    "Emersol 120",
    "Emersol 132",
    "Emersol 150",
    "Emersol 153",
    "Emersol 153NF",
    "Emersol 6349",
    "Emersol 871",
    "Emersol 875",
    "Emery 400 (Salt/Mix)",
    "Emery 871",
    "Emery 875D",
    "F 3 (lubricant)",
    "F0001-1489",
    "F70008",
    "FA 1655",
    "FA 18:0",
    "FEMA No. 3035",
    "FS14761",
    "Formula 300",
    "G 270",
    "GTPL3377",
    "Glycon DP",
    "Glycon S-70",
    "Glycon S-80",
    "Glycon S-90",
    "Glycon TP",
    "Groco 54",
    "Groco 55",
    "Groco 55L",
    "Groco 58",
    "Groco 59",
    "HSDB 2000",
    "HY-B2219",
    "HY-Phi 1199",
    "HY-Phi 1205",
    "HY-Phi 1303",
    "HY-Phi 1401",
    "Haimaric MKH(R)",
    "Heptadecanecarboxylic acid",
    "Humko Industrene R",
    "Hydrofol 1895",
    "Hydrofol Acid 150",
    "Hydrofol Acid 150 (VAN)",
    "Hydrofol Acid 1895",
    "Hydrofol acid 1655",
    "Hydrofol acid 1855",
    "Hyfac 410",
    "Hyfac 420",
    "Hyfac 421",
    "Hyfac 422",
    "Hystrene 4516",
    "Hystrene 5016",
    "Hystrene 7018",
    "Hystrene 7018 FG",
    "Hystrene 80",
    "Hystrene 9718",
    "Hystrene 9718 NF FG",
    "Hystrene 9718NF",
    "Hystrene 9718NFFG",
    "Hystrene S 97",
    "Hystrene S-97",
    "Hystrene T 70",
    "Hystrene T-70",
    "InChI=1/C18H36O2/c1-2-3-4-5-6-7-8-9-10-11-12-13-14-15-16-17-18(19)20/h2-17H2,1H3,(H,19,20",
    "Industrene 4518",
    "Industrene 5016",
    "Industrene 5016K",
    "Industrene 7018 FG",
    "Industrene 8718",
    "Industrene 9018",
    "Industrene R",
    "Isostearic acid EX",
    "Jinhwagwangsu Bubble",
    "Jinhwagwangsu Hair",
    "Kam 1000",
    "Kam 2000",
    "Kam 3000",
    "Kiri stearic acid",
    "Kortacid 1895",
    "LMFA01010018",
    "Lactaric acid",
    "Loxiol G 20",
    "Lunac",
    "Lunac 30",
    "Lunac S 20",
    "Lunac S 30",
    "Lunac S 40",
    "Lunac S 50",
    "Lunac S 90",
    "Lunac S 90KC",
    "Lunac S 98",
    "Lunac YA",
    "MFCD00002752",
    "MSK1716",
    "MSK1716-1000",
    "Melting Point Standard 69-71C, analytical standard",
    "NAA 173",
    "NAA 180",
    "NCGC00091596-01",
    "NCGC00091596-02",
    "NCGC00091596-03",
    "NCGC00091596-04",
    "NCGC00091596-05",
    "NCGC00254456-01",
    "NCGC00259436-01",
    "NEO-FAT 18S",
    "NOPCOCERA LU 6418",
    "NORSOREX AP",
    "NS00010335",
    "NSC 25956",
    "NSC 261168",
    "NSC-25956",
    "NSC-261168",
    "NSC25956",
    "Nonsoul SK 1",
    "Nonsoul SN 1 (*Sodium salt*)",
    "Obeo Baby Bubble",
    "Octadecanoic acid",
    "Octadecanoic acid (9CI)",
    "Octadecanoic acid Solution in Hexane, 1000?g/mL",
    "Octadecanoic acid Solution in Hexane, 1000mug/mL",
    "Octadecansaeure",
    "Oktadekansaeure",
    "Oktadekansaure",
    "PD 185",
    "PURIFIED STEARIC ACID [NF]",
    "Palmitostearic acid",
    "Pearl stearic",
    "Prifac 2918",
    "Prifac 5905",
    "Prisorine 3501",
    "Prisorine 3502",
    "Prisorine 3508",
    "Pristerene 4900",
    "Pristerene 4904",
    "Pristerene 4910",
    "Pristerene 4916",
    "Pristerene 4963",
    "Pristerene 4981",
    "Pristerene 9429",
    "Pristerene 9559",
    "Pristerine 4989",
    "Promulsin",
    "Purified stearic acid",
    "Q209685",
    "Radiacid 0427",
    "S 300",
    "S 30C",
    "S0163",
    "SA 200",
    "SBI-0633521.0002",
    "SCHEMBL659",
    "SNA-2000 (*Sodium salt*)",
    "SR-01000944717",
    "SR-01000944717-1",
    "STEARIC ACID (CONSTITUENT OF SAW PALMETTO)",
    "STEARIC ACID (CONSTITUENT OF SAW PALMETTO) [DSC]",
    "STEARIC ACID (EP MONOGRAPH)",
    "STEARIC ACID (II)",
    "STEARIC ACID (MART.)",
    "STEARIC ACID (USP-RS)",
    "STEARIC ACID [DSC]",
    "STEARIC ACID [EP MONOGRAPH]",
    "STEARIC ACID [FHFI]",
    "STEARIC ACID [HSDB]",
    "STEARIC ACID [II]",
    "STEARIC ACID [JAN]",
    "STEARIC ACID [MART.]",
    "STEARIC ACID [MI]",
    "STEARIC ACID [USP-RS]",
    "STEARIC ACID [VANDF]",
    "STEARIC ACID [WHO-DD]",
    "STL163565",
    "Selosol 920",
    "Serfax MT 90",
    "Stearate",
    "Stearex",
    "Stearex Beads",
    "Stearic Acid Cherry",
    "Stearic Acid, Pharmaceutical Secondary Standard; Certified Reference Material",
    "Stearic acid (8CI)",
    "Stearic acid (JP15/NF)",
    "Stearic acid (JP18/NF)",
    "Stearic acid (TN)",
    "Stearic acid (reagent grade)",
    "Stearic acid 50",
    "Stearic acid 50, tested according to Ph.Eur.",
    "Stearic acid 70",
    "Stearic acid [JAN:NF]",
    "Stearic acid, >=95%, FCC, FG",
    "Stearic acid, >=98%",
    "Stearic acid, CP",
    "Stearic acid, European Pharmacopoeia (EP) Reference Standard",
    "Stearic acid, Grade I, >=98.5% (capillary GC)",
    "Stearic acid, SAJ first grade, >=90.0%",
    "Stearic acid, SAJ first grade, >=90.0%, powder",
    "Stearic acid, SAJ special grade, >=95.0%",
    "Stearic acid, United States Pharmacopeia (USP) Reference Standard",
    "Stearic acid, Vetec(TM) reagent grade, 94%",
    "Stearic acid, analytical standard",
    "Stearic acid, certified reference material, TraceCERT(R)",
    "Stearic acid, pure",
    "Stearic acid, puriss.",
    "Stearic acid, puriss., >=98.5% (GC)",
    "Stearic acid, reagent grade, 95%",
    "Stearic acid?",
    "Stearic acid_ravikumar",
    "Stearicacid",
    "Stearinsaeure",
    "Stearinsaure",
    "Stearophanate",
    "Stearophanic acid",
    "Sterene 460",
    "Sterene 60b",
    "Sterene 60r",
    "Steric acid",
    "Sunfat 18S",
    "Talgic acid",
    "Tegostearic 254",
    "Tegostearic 255",
    "Tegostearic 272",
    "Tox21_111154",
    "Tox21_111154_1",
    "Tox21_201887",
    "Tox21_300562",
    "Tsubaki",
    "UNII-4ELV7Z65AP",
    "UNII-X33R8U0062",
    "Unimac 5680",
    "Unister NAA 180",
    "VLZ 200",
    "VS-03242",
    "Vanicol",
    "Vis-Plus",
    "WLN: QV17",
    "WO 2",
    "X33R8U0062",
    "Z104474964",
    "ZENOL POWERFULX RECOVERYCREAM",
    "acide octadecanoique",
    "acide stearique",
    "bmse000485",
    "fatty acid 18:0",
    "n-Octadecanoate",
    "n-Octadecanoic acid",
    "n-Octadecylic acid",
    "octadecanoic acid",
    "octadecansaure",
    "octadecoic acid",
    "s5733",
    "stearic acid"
  ],
  "CAS": [
    "18639-67-3",
    "57-11-4"
  ],
  "M": 284.5,
  "formula": "C18H36O2",
  "SMILES": "CCCCCCCCCCCCCCCCCC(=O)O",
  "InChi": "InChI=1S/C18H36O2/c1-2-3-4-5-6-7-8-9-10-11-12-13-14-15-16-17-18(19)20/h2-17H2,1H3,(H,19,20)",
  "InChiKey": "QIQXTHQIDYTFRH-UHFFFAOYSA-N",
  "logP": 7.4,
  "date": "2025-03-19"
}