{
  "cid": 5281,
  "synonyms": [
    "stearic acid",
    "Octadecanoic acid",
    "57-11-4",
    "n-Octadecanoic acid",
    "Stearophanic acid",
    "Cetylacetic acid",
    "1-Heptadecanecarboxylic acid",
    "Pearl stearic",
    "Stearex Beads",
    "Octadecansaeure",
    "Stearinsaeure",
    "Vanicol",
    "Hydrofol Acid 150",
    "Century 1240",
    "Glycon DP",
    "Glycon TP",
    "Industrene R",
    "Stearate",
    "Formula 300",
    "Hydrofol 1895",
    "Hystrene 7018",
    "Hystrene 9718",
    "Glycon S-80",
    "Glycon S-90",
    "octadecoic acid",
    "Tegostearic 254",
    "Tegostearic 255",
    "Tegostearic 272",
    "Hystrene 80",
    "Humko Industrene R",
    "Hydrofol acid 1655",
    "Hydrofol acid 1855",
    "Hystrene S-97",
    "Hystrene T-70",
    "Industrene 5016",
    "Dar-chem 14",
    "Emersol 120",
    "Emersol 132",
    "Hystrene 4516",
    "Hystrene 5016",
    "Groco 54",
    "Groco 55",
    "Groco 55L",
    "Groco 58",
    "Groco 59",
    "Glycon S-70",
    "Industrene 8718",
    "Industrene 9018",
    "Emersol 150",
    "Kam 1000",
    "Barolub FTA",
    "FEMA No. 3035",
    "Acidum stearinicul",
    "C18:0",
    "Caswell No. 801D",
    "Oktadekansaeure",
    "HY-Phi 1199",
    "HY-Phi 1205",
    "HY-Phi 1303",
    "HY-Phi 1401",
    "acide stearique",
    "Kam 2000",
    "Kam 3000",
    "Steric acid",
    "Century 1210",
    "acide octadecanoique",
    "Stearic acid, pure",
    "PD 185",
    "NAA 173",
    "CCRIS 2305",
    "Stearic acid 50",
    "HSDB 2000",
    "Emersol 153NF",
    "Dervacid 3155",
    "Purified stearic acid",
    "Adeka sa 300",
    "Century 1220",
    "Century 1230",
    "Emersol 6349",
    "Hydrofol Acid 150 (VAN)",
    "NSC 25956",
    "Lunac S 40",
    "Hydrofol Acid 1895",
    "Prifac 2918",
    "Promulsin",
    "EPA Pesticide Chemical Code 079082",
    "Vis-Plus",
    "AI3-00909",
    "UNII-4ELV7Z65AP",
    "EINECS 200-313-4",
    "n-Octadecylic acid",
    "4ELV7Z65AP",
    "MFCD00002752",
    "NSC-25956",
    "Pristerene 4900",
    "Hystrene S 97",
    "Hystrene T 70",
    "Stearic Acid Cherry",
    "Edenor C18",
    "Edenor ST 1",
    "Sunfat 18S",
    "BRN 0608585",
    "Emersol 153",
    "Selosol 920",
    "Stearic acid (TN)",
    "Hystrene 9718NF",
    "Kortacid 1895",
    "Lunac 30",
    "CH3-[CH2]16-COOH",
    "DTXSID8021642",
    "Loxiol G 20",
    "CHEBI:28842",
    "Lunac S 20",
    "Lunac S 30",
    "Lunac S 90",
    "Lunac S 90KC",
    "Hystrene 9718NFFG",
    "NSC-261168",
    "CHEMBL46403",
    "17FA",
    "DTXCID301642",
    "EC 200-313-4",
    "4-02-00-01206 (Beilstein Handbook Reference)",
    "NSC25956",
    "FA 18:0",
    "NCGC00091596-02",
    "STEARIC ACID (II)",
    "STEARIC ACID [II]",
    "400JB9103-88",
    "A 1760",
    "STEARIC ACID (MART.)",
    "STEARIC ACID [MART.]",
    "STEARIC ACID (USP-RS)",
    "STEARIC ACID [USP-RS]",
    "CH3-(CH2)16-COOH",
    "Oktadekansaure",
    "Stearicacid",
    "Lunac",
    "STEARIC ACID (EP MONOGRAPH)",
    "STEARIC ACID [EP MONOGRAPH]",
    "CAS-57-11-4",
    "Isostearic acid EX",
    "Haimaric MKH(R)",
    "Prisorine 3501",
    "Prisorine 3502",
    "Prisorine 3508",
    "Emersol 871",
    "Emersol 875",
    "Emery 875D",
    "Emery 871",
    "Unimac 5680",
    "C-Lube 10",
    "Stearic acid [JAN:NF]",
    "octadecansaure",
    "Stearinsaure",
    "Stearophanate",
    "Stearex",
    "Tsubaki",
    "n-Octadecanoate",
    "Bassinic acid",
    "Lactaric acid",
    "Talgic acid",
    "Doctor Plus",
    "Edenor htict-n",
    "Stearic acid?",
    "1hmr",
    "1hmt",
    "4fnn",
    "Kiri stearic acid",
    "Obeo Baby Bubble",
    "Jinhwagwangsu Hair",
    "Lunac YA",
    "Palmitostearic acid",
    "Stearic acid 70",
    "Stearic acid, CP",
    "Sterene 60b",
    "Sterene 60r",
    "EINECS 250-178-0",
    "F 3 (lubricant)",
    "Industrene 4518",
    "Jinhwagwangsu Bubble",
    "Nonsoul SK 1",
    "Pristerene 4904",
    "Pristerene 4910",
    "Pristerene 4916",
    "Pristerene 4963",
    "Pristerene 4981",
    "Pristerene 9429",
    "Pristerene 9559",
    "Pristerine 4989",
    "CELOZOLE",
    "fatty acid 18:0",
    "Sterene 460",
    "Industrene 5016K",
    "Radiacid 0427",
    "Edenor ST 20",
    "Serfax MT 90",
    "Stearic acid_ravikumar",
    "Unister NAA 180",
    "Century 1224",
    "NORSOREX AP",
    "Edenor HT-JG 60",
    "Stearic acid (8CI)",
    "Stearic acid, puriss.",
    "Hyfac 410",
    "Hyfac 420",
    "Hyfac 421",
    "Hyfac 422",
    "Hystrene 7018 FG",
    "Lunac S 50",
    "Lunac S 98",
    "Prifac 5905",
    "3v2p",
    "875D",
    "1-Heptadecanecarboxylate",
    "Industrene 7018 FG",
    "AFCO-Chem B 65",
    "Heptadecanecarboxylic acid",
    "Edenor C 18/98",
    "Octadecanoic acid (9CI)",
    "Stearic acid, >=98%",
    "SCHEMBL659",
    "Hystrene 9718 NF FG",
    "bmse000485",
    "STEARIC ACID [MI]",
    "Emery 400 (Salt/Mix)",
    "NEO-FAT 18S",
    "STEARIC ACID [DSC]",
    "STEARIC ACID [JAN]",
    "Stearic acid (JP15/NF)",
    "Stearic acid (JP18/NF)",
    "Emersol 110 (Salt/Mix)",
    "STEARIC ACID [FHFI]",
    "STEARIC ACID [HSDB]",
    "NOPCOCERA LU 6418",
    "Stearic acid (reagent grade)",
    "STEARIC ACID [VANDF]",
    "WLN: QV17",
    "STEARIC ACID [WHO-DD]",
    "GTPL3377",
    "WO 2",
    "UNII-X33R8U0062",
    "CELLBN FIRST CARE CLEANSER",
    "MSK1716",
    "NAA 180",
    "Nonsoul SN 1 (*Sodium salt*)",
    "SNA-2000 (*Sodium salt*)",
    "Stearic acid, analytical standard",
    "VLZ 200",
    "S 30C",
    "PURIFIED STEARIC ACID [NF]",
    "Stearic acid, reagent grade, 95%",
    "HY-B2219",
    "ZENOL POWERFULX RECOVERYCREAM",
    "Tox21_111154",
    "Tox21_201887",
    "Tox21_300562",
    "BBL012224",
    "BDBM50240485",
    "LMFA01010018",
    "s5733",
    "SA 200",
    "Stearic acid, >=95%, FCC, FG",
    "STL163565",
    "AKOS005716958",
    "Tox21_111154_1",
    "1ST1716",
    "CCG-267314",
    "DB03193",
    "FA 1655",
    "FS14761",
    "NSC 261168",
    "X33R8U0062",
    "NCGC00091596-01",
    "NCGC00091596-03",
    "NCGC00091596-04",
    "NCGC00091596-05",
    "NCGC00254456-01",
    "NCGC00259436-01",
    "E570",
    "MSK1716-1000",
    "VS-03242",
    "Stearic acid, puriss., >=98.5% (GC)",
    "Stearic acid, SAJ first grade, >=90.0%",
    "CS-0021598",
    "G 270",
    "NS00010335",
    "S 300",
    "S0163",
    "EN300-19730",
    "Stearic acid, SAJ special grade, >=95.0%",
    "Stearic acid, Vetec(TM) reagent grade, 94%",
    "1ST1716-1000",
    "C01530",
    "D00119",
    "EC 250-178-0",
    "F70008",
    "SBI-0633521.0002",
    "Stearic acid 50, tested according to Ph.Eur.",
    "Octadecanoic acid Solution in Hexane, 1000?g/mL",
    "Octadecanoic acid Solution in Hexane, 1000mug/mL",
    "Q209685",
    "SR-01000944717",
    "STEARIC ACID (CONSTITUENT OF SAW PALMETTO)",
    "Melting Point Standard 69-71C, analytical standard",
    "SR-01000944717-1",
    "Stearic acid, Grade I, >=98.5% (capillary GC)",
    "Stearic acid, SAJ first grade, >=90.0%, powder",
    "F0001-1489",
    "STEARIC ACID (CONSTITUENT OF SAW PALMETTO) [DSC]",
    "Stearic acid, certified reference material, TraceCERT(R)",
    "Z104474964",
    "CD7993EA-AD14-452A-A907-33376CC98790",
    "Stearic acid, European Pharmacopoeia (EP) Reference Standard",
    "Stearic acid, United States Pharmacopeia (USP) Reference Standard",
    "Stearic Acid, Pharmaceutical Secondary Standard; Certified Reference Material",
    "18639-67-3",
    "200-313-4",
    "InChI=1/C18H36O2/c1-2-3-4-5-6-7-8-9-10-11-12-13-14-15-16-17-18(19)20/h2-17H2,1H3,(H,19,20"
  ],
  "sids": [
    4692,
    86947,
    584427,
    589711,
    619596,
    819800,
    820449,
    821020,
    824039,
    829648,
    837265,
    841976,
    3137199,
    5616281,
    7847187,
    7849671,
    7890610,
    8138090,
    8144269,
    8153247,
    10317720,
    10527782,
    11110319,
    11528318,
    14824610,
    17389656,
    17422332,
    17422334,
    17422335,
    17422337,
    24850497,
    24899616,
    24901439,
    26706787,
    26706788,
    26706789,
    26708084,
    26736291,
    26736295,
    26753067,
    29224336,
    32859450,
    36723862,
    46392135,
    46392137,
    46508522,
    48414834,
    48416731,
    48424109,
    48425631,
    49854221,
    49986195,
    51075738,
    53790488,
    53812380,
    56261114,
    56468366,
    57322695,
    79189613,
    81044096,
    81059390,
    84981713,
    85089546,
    85089547,
    85165270,
    87575754,
    87692919,
    89360223,
    92297686,
    99289365,
    99344308,
    99344310,
    99344314,
    103071936,
    103077224,
    103224646,
    104098316,
    104308786,
    117427385,
    117427405,
    117689394,
    124525392,
    124891139,
    124891140,
    125292630,
    125300027,
    125326880,
    126531887,
    126556713,
    126588574,
    126677729,
    127724712,
    128004614,
    128676577,
    129028538,
    129657396,
    131999585,
    134220915,
    134970699,
    135017621,
    135653133,
    137277022,
    142082801,
    143434614,
    144101210,
    144187622,
    144204705,
    144209085,
    144210879,
    152255182,
    160657240,
    160657242,
    160781076,
    160966338,
    162010493,
    162178398,
    162266583,
    162546635,
    163679073,
    163805382,
    163821536,
    163821537,
    164765068,
    164779308,
    169517518,
    170465630,
    170485478,
    173332192,
    173332194,
    174529870,
    175267118,
    176254501,
    176300174,
    177900004,
    177900006,
    178100396,
    179093457,
    196105689,
    204359766,
    204938798,
    208012641,
    208013392,
    211786771,
    223258946,
    223448863,
    223674384,
    223733429,
    223733738,
    223737955,
    225184564,
    226393634,
    241102125,
    241172860,
    241177130,
    241177133,
    243749540,
    246110754,
    249839911,
    249905125,
    252106437,
    252106441,
    252356758,
    252454303,
    253653078,
    254780098,
    254817010,
    255435445,
    257531939,
    273058296,
    274953613,
    275918075,
    276935212,
    310280283,
    312188966,
    312325245,
    312528828,
    312604037,
    312636775,
    315341040,
    315672519,
    316604430,
    316962238,
    316962239,
    316962562,
    316962700,
    316962714,
    316962715,
    316962716,
    316962717,
    316962746,
    316963268,
    316963269,
    316963270,
    316963271,
    316963272,
    316963273,
    316963274,
    316963276,
    316963288,
    316964322,
    316964840,
    316965842,
    316972315,
    316972316,
    316972317,
    318163722,
    318238368,
    318344079,
    318465334,
    319063432,
    319063433,
    319432679,
    319901886,
    321908275,
    321948593,
    329735158,
    329751146,
    329752887,
    329753213,
    329753214,
    329753215,
    329753216,
    329764775,
    329766929,
    329767653,
    329769400,
    329769401,
    329823135,
    329824475,
    329827995,
    329829556,
    336295587,
    336850891,
    340510047,
    341136420,
    341140335,
    342433242,
    342582318,
    346441325,
    346695207,
    347757440,
    347830691,
    348274843,
    348355976,
    348481944,
    349977199,
    349996977,
    350101904,
    350101914,
    354349668,
    355426927,
    363601477,
    363894850,
    363900255,
    374061706,
    374144937,
    374172272,
    374372604,
    374915621,
    375079122,
    375079527,
    375082041,
    375082042,
    375082043,
    375082044,
    375082045,
    375091903,
    375573788,
    375581833,
    375654815,
    375893801,
    376004958,
    376004963,
    376154352,
    376154593,
    376230231,
    376591177,
    377011491,
    377355095,
    381002260,
    381011220,
    381341175,
    381365707,
    381623060,
    381623703,
    381831058,
    382162608,
    382370587,
    384111834,
    384251271,
    385155243,
    385155251,
    385157376,
    385648917,
    385868168,
    386268557,
    386485352,
    387044651,
    387143555,
    402316444,
    402316445,
    402318546,
    402318547,
    402319863,
    402319864,
    402319865,
    402330436,
    402407058,
    402407065,
    403029347,
    404639902,
    404720720,
    404720732,
    404720744,
    404720756,
    404720768,
    404720780,
    404720792,
    404720804,
    404720816,
    404720828,
    404755145,
    404783997,
    405043005,
    405103016,
    405133526,
    405243802,
    405243806,
    405243812,
    405243816,
    405281621,
    405492172,
    405540151,
    406544008,
    406589627,
    406589641,
    406589826,
    406675006,
    412667134,
    429321328,
    429321380,
    429321425,
    429321476,
    429321535,
    429321590,
    429322476,
    429322530,
    429322604,
    429322662,
    429322727,
    429322803,
    429322866,
    431904151,
    433773837,
    433774028,
    433775252,
    433776421,
    433776779,
    433781234,
    433973059,
    433981859,
    433986122,
    433986129,
    434126950,
    434506256,
    438431345,
    438470608,
    438472792,
    438505364,
    438583413,
    439948314,
    440038830,
    440770289,
    440785628,
    440823150,
    441064214,
    441132739,
    441132812,
    441132820,
    441132828,
    441132836,
    441132844,
    441132852,
    441233801,
    441233806,
    441233807,
    441233812,
    441233814,
    441233817,
    441233905,
    441566304,
    441566313,
    441566317,
    441566324,
    441634457,
    442031712,
    442070702,
    443547641,
    443636842,
    444057948,
    445429414,
    445433414,
    446264798,
    447087152,
    447087171,
    447087384,
    447087400,
    447087447,
    447087502,
    447087564,
    447087618,
    447087662,
    447087723,
    447087767,
    459062874,
    459162715,
    459164233,
    459164958,
    459199361,
    459199362,
    459208936,
    459208937,
    459208938,
    459218279,
    459241748,
    459259739,
    459664279,
    459664288,
    459664295,
    459664303,
    459664312,
    459664318,
    459664325,
    459664333,
    459664338,
    459664346,
    459664351,
    459664359,
    459664367,
    459664374,
    459664379,
    459664385,
    459664392,
    459664396,
    459664407,
    461484526,
    461484543,
    462587949,
    463766262,
    463797007,
    464737200,
    470085411,
    470652761,
    471349958,
    471349980,
    472323471,
    472460103,
    472472594,
    472629139,
    472829464,
    472832261,
    472893140,
    472954569,
    472966016,
    473083788,
    473165417,
    473508636,
    473508709,
    473508776,
    475399207,
    478105380,
    478105438,
    478105491,
    478105534,
    478105573,
    478105644,
    478105694,
    478105747,
    478105796,
    478105842,
    478836003,
    479841662,
    479841670,
    481108030,
    482091050,
    482097059,
    482097060,
    482097064,
    482097067,
    482162408,
    482318636,
    482415489,
    483475572,
    483475578,
    483552085,
    483748274,
    485172499,
    485317169,
    485514719,
    486312408,
    486315193,
    486327355,
    486458594,
    486469614,
    488164581,
    488300800,
    488425172,
    488965910,
    489030572,
    489211520,
    489257138,
    490035263,
    490035265,
    490340578,
    490340585,
    490647332,
    491526740,
    491744706,
    495639930,
    495664588,
    496092333,
    496092334,
    496092335,
    496122963,
    496123059,
    496186172,
    496202040,
    498251294,
    500369165,
    503266098,
    503326201,
    504749542,
    504750863,
    505113506,
    505116648,
    505116684,
    505116700,
    505116719,
    505116736,
    505116755,
    505116781,
    505116794,
    505243240,
    505384711,
    505845873,
    505845972,
    505955499,
    506232274
  ],
  "aids": [
    155,
    157,
    161,
    165,
    167,
    175,
    421,
    426,
    427,
    433,
    434,
    435,
    445,
    530,
    540,
    541,
    542,
    543,
    544,
    545,
    546,
    584,
    585,
    595,
    596,
    603,
    605,
    654,
    655,
    656,
    657,
    658,
    659,
    660,
    661,
    662,
    663,
    664,
    665,
    666,
    667,
    875,
    880,
    881,
    884,
    885,
    886,
    887,
    889,
    892,
    893,
    894,
    900,
    902,
    912,
    921,
    923,
    924,
    925,
    926,
    938,
    946,
    947,
    948,
    955,
    960,
    961,
    962,
    963,
    964,
    965,
    966,
    967,
    968,
    969,
    970,
    971,
    972,
    973,
    974,
    975,
    976,
    977,
    978,
    979,
    980,
    981,
    982,
    983,
    984,
    985,
    986,
    987,
    988,
    989,
    993,
    994,
    995,
    1030,
    1201,
    1452,
    1457,
    1458,
    1469,
    1471,
    1476,
    1477,
    1478,
    1479,
    1490,
    1688,
    1766,
    1768,
    1811,
    1948,
    2101,
    2107,
    2112,
    2120,
    2517,
    2528,
    2546,
    2549,
    2551,
    2662,
    32788,
    40631,
    54696,
    54698,
    355478,
    360927,
    360928,
    376615,
    422404,
    423126,
    478133,
    478134,
    478135,
    485290,
    492140,
    492961,
    504327,
    504332,
    504749,
    504832,
    504834,
    504847,
    504865,
    588513,
    588514,
    588515,
    588516,
    588526,
    588527,
    588532,
    588533,
    588534,
    588535,
    588536,
    588537,
    588541,
    588543,
    588544,
    588545,
    588546,
    588547,
    588579,
    588834,
    597407,
    597408,
    602332,
    624030,
    624031,
    624032,
    624044,
    624170,
    624172,
    624173,
    624296,
    624297,
    627874,
    627875,
    627876,
    627877,
    627878,
    627879,
    627880,
    627976,
    627979,
    627980,
    627981,
    627982,
    628060,
    651631,
    651632,
    651633,
    651634,
    651635,
    651741,
    651743,
    651749,
    651751,
    651754,
    651755,
    651757,
    651758,
    651777,
    651778,
    651802,
    651838,
    652048,
    652051,
    658437,
    658438,
    658439,
    658440,
    658441,
    658442,
    658443,
    658444,
    686978,
    686979,
    720516,
    720532,
    720533,
    720552,
    720634,
    720635,
    720636,
    720637,
    720652,
    720653,
    720659,
    720674,
    720675,
    720678,
    720679,
    720680,
    720681,
    720682,
    720683,
    720684,
    720685,
    720686,
    720687,
    720691,
    720692,
    720693,
    720719,
    720725,
    743012,
    743014,
    743015,
    743033,
    743035,
    743036,
    743040,
    743041,
    743042,
    743053,
    743054,
    743063,
    743064,
    743065,
    743066,
    743067,
    743069,
    743074,
    743075,
    743077,
    743078,
    743079,
    743080,
    743081,
    743083,
    743084,
    743085,
    743086,
    743091,
    743094,
    743122,
    743139,
    743140,
    743191,
    743194,
    743199,
    743202,
    743203,
    743209,
    743210,
    743211,
    743212,
    743213,
    743215,
    743217,
    743218,
    743219,
    743220,
    743221,
    743222,
    743223,
    743224,
    743225,
    743226,
    743227,
    743228,
    743239,
    743240,
    743241,
    743242,
    743244,
    743288,
    743292,
    977611,
    1082324,
    1082327,
    1082328,
    1082329,
    1082330,
    1082331,
    1082332,
    1082333,
    1082334,
    1082335,
    1082336,
    1082337,
    1082338,
    1082339,
    1082340,
    1082341,
    1082342,
    1082343,
    1082344,
    1082345,
    1082346,
    1082347,
    1082348,
    1082349,
    1082350,
    1082351,
    1082352,
    1082355,
    1082356,
    1082357,
    1082358,
    1082359,
    1082360,
    1114582,
    1114583,
    1114584,
    1117298,
    1117304,
    1117305,
    1117310,
    1117312,
    1117314,
    1117326,
    1117329,
    1117336,
    1117340,
    1117341,
    1117342,
    1117343,
    1117346,
    1159509,
    1159515,
    1159516,
    1159517,
    1159518,
    1159519,
    1159520,
    1159521,
    1159523,
    1159525,
    1159526,
    1159527,
    1159528,
    1159529,
    1159531,
    1159551,
    1159552,
    1159553,
    1159555,
    1159614,
    1224834,
    1224835,
    1224836,
    1224837,
    1224838,
    1224839,
    1224840,
    1224841,
    1224842,
    1224843,
    1224844,
    1224845,
    1224846,
    1224847,
    1224848,
    1224849,
    1224857,
    1224859,
    1224867,
    1224868,
    1224869,
    1224870,
    1224871,
    1224872,
    1224873,
    1224874,
    1224875,
    1224876,
    1224877,
    1224878,
    1224879,
    1224880,
    1224881,
    1224882,
    1224883,
    1224884,
    1224885,
    1224886,
    1224887,
    1224888,
    1224889,
    1224890,
    1224892,
    1224893,
    1224894,
    1224895,
    1224896,
    1259241,
    1259242,
    1259243,
    1259244,
    1259247,
    1259248,
    1259251,
    1259318,
    1259344,
    1259355,
    1259356,
    1259364,
    1259365,
    1259366,
    1259367,
    1259368,
    1259369,
    1259377,
    1259378,
    1259379,
    1259380,
    1259381,
    1259382,
    1259383,
    1259384,
    1259385,
    1259386,
    1259387,
    1259388,
    1259390,
    1259391,
    1259392,
    1259393,
    1259394,
    1259395,
    1259396,
    1259400,
    1259401,
    1259402,
    1259403,
    1259404,
    1259407,
    1259408,
    1259409,
    1296008,
    1296009,
    1345084,
    1345199,
    1346378,
    1346428,
    1346784,
    1346795,
    1346798,
    1346799,
    1346824,
    1346829,
    1346859,
    1346877,
    1346891,
    1346924,
    1346977,
    1346978,
    1346979,
    1346980,
    1346981,
    1346982,
    1346983,
    1346984,
    1346985,
    1346986,
    1346987,
    1347030,
    1347031,
    1347032,
    1347033,
    1347034,
    1347035,
    1347036,
    1347037,
    1347038,
    1347053,
    1347055,
    1347082,
    1347083,
    1347085,
    1347086,
    1347089,
    1347090,
    1347091,
    1347092,
    1347093,
    1347094,
    1347095,
    1347096,
    1347097,
    1347098,
    1347099,
    1347100,
    1347101,
    1347102,
    1347103,
    1347104,
    1347105,
    1347106,
    1347107,
    1347108,
    1347154,
    1347395,
    1347397,
    1347398,
    1347399,
    1347407,
    1347424,
    1347425,
    1417295,
    1417296,
    1417297,
    1417299,
    1417300,
    1479145,
    1479147,
    1479149,
    1479150,
    1508616,
    1508620,
    1508623,
    1508624,
    1508630,
    1525222,
    1525223,
    1645839,
    1645840,
    1645841,
    1645842,
    1645845,
    1645846,
    1645851,
    1645870,
    1645876,
    1645877,
    1645882,
    1645883,
    1645886,
    1645887,
    1657531,
    1671188,
    1671190,
    1671193,
    1671194,
    1671196,
    1671197,
    1671198,
    1671199,
    1671200,
    1671201,
    1671498,
    1682351,
    1682352,
    1682353,
    1745845,
    1745856,
    1745857,
    1794836,
    1794837,
    1794838,
    1794839,
    1794840,
    1794841,
    1831923,
    1845191,
    1845192,
    1901632,
    1901633,
    1901640,
    1901643,
    1919968,
    1919969,
    1919970,
    1919971,
    1919972,
    1919973,
    1919974,
    1919975,
    1919976,
    1919977,
    1919978,
    1920058,
    1920059,
    1920060,
    1920061,
    1920063,
    1920064,
    1920065,
    1920067,
    1920068,
    1961187,
    1961680,
    1961685,
    1961687,
    1961688,
    1961693,
    1961706,
    1961716,
    1961718,
    1961723,
    1961736,
    1961739,
    1961749,
    1961751,
    1961756,
    1961769,
    1961772,
    1961777,
    1961785,
    1961786,
    1961787,
    1961812,
    1961813,
    1961814,
    1961820,
    1961826,
    1961828,
    1961838,
    1961839,
    1961840,
    1961844,
    1961845,
    1963577,
    1963578,
    1963579,
    1963580,
    1963581,
    1963582,
    1963583,
    1963584,
    1963585,
    1963596
  ],
  "elements": [
    "O",
    "O",
    "C",
    "C",
    "C",
    "C",
    "C",
    "C",
    "C",
    "C",
    "C",
    "C",
    "C",
    "C",
    "C",
    "C",
    "C",
    "C",
    "C",
    "C",
    "H",
    "H",
    "H",
    "H",
    "H",
    "H",
    "H",
    "H",
    "H",
    "H",
    "H",
    "H",
    "H",
    "H",
    "H",
    "H",
    "H",
    "H",
    "H",
    "H",
    "H",
    "H",
    "H",
    "H",
    "H",
    "H",
    "H",
    "H",
    "H",
    "H",
    "H",
    "H",
    "H",
    "H",
    "H",
    "H"
  ],
  "atoms": [
    {
      "aid": 1,
      "element": "O",
      "x": 2.5369,
      "y": 0.75,
      "z": null,
      "charge": 0
    },
    {
      "aid": 2,
      "element": "O",
      "x": 3.403,
      "y": -0.75,
      "z": null,
      "charge": 0
    },
    {
      "aid": 3,
      "element": "C",
      "x": 11.1972,
      "y": 0.75,
      "z": null,
      "charge": 0
    },
    {
      "aid": 4,
      "element": "C",
      "x": 10.3312,
      "y": 0.25,
      "z": null,
      "charge": 0
    },
    {
      "aid": 5,
      "element": "C",
      "x": 12.0632,
      "y": 0.25,
      "z": null,
      "charge": 0
    },
    {
      "aid": 6,
      "element": "C",
      "x": 9.4651,
      "y": 0.75,
      "z": null,
      "charge": 0
    },
    {
      "aid": 7,
      "element": "C",
      "x": 12.9292,
      "y": 0.75,
      "z": null,
      "charge": 0
    },
    {
      "aid": 8,
      "element": "C",
      "x": 8.5991,
      "y": 0.25,
      "z": null,
      "charge": 0
    },
    {
      "aid": 9,
      "element": "C",
      "x": 13.7953,
      "y": 0.25,
      "z": null,
      "charge": 0
    },
    {
      "aid": 10,
      "element": "C",
      "x": 7.7331,
      "y": 0.75,
      "z": null,
      "charge": 0
    },
    {
      "aid": 11,
      "element": "C",
      "x": 14.6613,
      "y": 0.75,
      "z": null,
      "charge": 0
    },
    {
      "aid": 12,
      "element": "C",
      "x": 6.8671,
      "y": 0.25,
      "z": null,
      "charge": 0
    },
    {
      "aid": 13,
      "element": "C",
      "x": 15.5273,
      "y": 0.25,
      "z": null,
      "charge": 0
    },
    {
      "aid": 14,
      "element": "C",
      "x": 6.001,
      "y": 0.75,
      "z": null,
      "charge": 0
    },
    {
      "aid": 15,
      "element": "C",
      "x": 16.3933,
      "y": 0.75,
      "z": null,
      "charge": 0
    },
    {
      "aid": 16,
      "element": "C",
      "x": 5.135,
      "y": 0.25,
      "z": null,
      "charge": 0
    },
    {
      "aid": 17,
      "element": "C",
      "x": 17.2594,
      "y": 0.25,
      "z": null,
      "charge": 0
    },
    {
      "aid": 18,
      "element": "C",
      "x": 4.269,
      "y": 0.75,
      "z": null,
      "charge": 0
    },
    {
      "aid": 19,
      "element": "C",
      "x": 18.1254,
      "y": 0.75,
      "z": null,
      "charge": 0
    },
    {
      "aid": 20,
      "element": "C",
      "x": 3.403,
      "y": 0.25,
      "z": null,
      "charge": 0
    },
    {
      "aid": 21,
      "element": "H",
      "x": 11.5957,
      "y": 1.225,
      "z": null,
      "charge": 0
    },
    {
      "aid": 22,
      "element": "H",
      "x": 10.7987,
      "y": 1.225,
      "z": null,
      "charge": 0
    },
    {
      "aid": 23,
      "element": "H",
      "x": 9.9326,
      "y": -0.2249,
      "z": null,
      "charge": 0
    },
    {
      "aid": 24,
      "element": "H",
      "x": 10.7297,
      "y": -0.2249,
      "z": null,
      "charge": 0
    },
    {
      "aid": 25,
      "element": "H",
      "x": 11.6647,
      "y": -0.2249,
      "z": null,
      "charge": 0
    },
    {
      "aid": 26,
      "element": "H",
      "x": 12.4617,
      "y": -0.2249,
      "z": null,
      "charge": 0
    },
    {
      "aid": 27,
      "element": "H",
      "x": 9.8637,
      "y": 1.225,
      "z": null,
      "charge": 0
    },
    {
      "aid": 28,
      "element": "H",
      "x": 9.0666,
      "y": 1.225,
      "z": null,
      "charge": 0
    },
    {
      "aid": 29,
      "element": "H",
      "x": 13.3278,
      "y": 1.225,
      "z": null,
      "charge": 0
    },
    {
      "aid": 30,
      "element": "H",
      "x": 12.5307,
      "y": 1.225,
      "z": null,
      "charge": 0
    },
    {
      "aid": 31,
      "element": "H",
      "x": 8.2006,
      "y": -0.2249,
      "z": null,
      "charge": 0
    },
    {
      "aid": 32,
      "element": "H",
      "x": 8.9976,
      "y": -0.2249,
      "z": null,
      "charge": 0
    },
    {
      "aid": 33,
      "element": "H",
      "x": 13.3967,
      "y": -0.2249,
      "z": null,
      "charge": 0
    },
    {
      "aid": 34,
      "element": "H",
      "x": 14.1938,
      "y": -0.2249,
      "z": null,
      "charge": 0
    },
    {
      "aid": 35,
      "element": "H",
      "x": 8.1316,
      "y": 1.225,
      "z": null,
      "charge": 0
    },
    {
      "aid": 36,
      "element": "H",
      "x": 7.3346,
      "y": 1.225,
      "z": null,
      "charge": 0
    },
    {
      "aid": 37,
      "element": "H",
      "x": 15.0598,
      "y": 1.225,
      "z": null,
      "charge": 0
    },
    {
      "aid": 38,
      "element": "H",
      "x": 14.2628,
      "y": 1.225,
      "z": null,
      "charge": 0
    },
    {
      "aid": 39,
      "element": "H",
      "x": 6.4685,
      "y": -0.2249,
      "z": null,
      "charge": 0
    },
    {
      "aid": 40,
      "element": "H",
      "x": 7.2656,
      "y": -0.2249,
      "z": null,
      "charge": 0
    },
    {
      "aid": 41,
      "element": "H",
      "x": 15.1288,
      "y": -0.2249,
      "z": null,
      "charge": 0
    },
    {
      "aid": 42,
      "element": "H",
      "x": 15.9258,
      "y": -0.2249,
      "z": null,
      "charge": 0
    },
    {
      "aid": 43,
      "element": "H",
      "x": 6.3996,
      "y": 1.225,
      "z": null,
      "charge": 0
    },
    {
      "aid": 44,
      "element": "H",
      "x": 5.6025,
      "y": 1.225,
      "z": null,
      "charge": 0
    },
    {
      "aid": 45,
      "element": "H",
      "x": 16.7919,
      "y": 1.225,
      "z": null,
      "charge": 0
    },
    {
      "aid": 46,
      "element": "H",
      "x": 15.9948,
      "y": 1.225,
      "z": null,
      "charge": 0
    },
    {
      "aid": 47,
      "element": "H",
      "x": 4.7365,
      "y": -0.2249,
      "z": null,
      "charge": 0
    },
    {
      "aid": 48,
      "element": "H",
      "x": 5.5335,
      "y": -0.2249,
      "z": null,
      "charge": 0
    },
    {
      "aid": 49,
      "element": "H",
      "x": 16.8608,
      "y": -0.2249,
      "z": null,
      "charge": 0
    },
    {
      "aid": 50,
      "element": "H",
      "x": 17.6579,
      "y": -0.2249,
      "z": null,
      "charge": 0
    },
    {
      "aid": 51,
      "element": "H",
      "x": 4.6675,
      "y": 1.225,
      "z": null,
      "charge": 0
    },
    {
      "aid": 52,
      "element": "H",
      "x": 3.8705,
      "y": 1.225,
      "z": null,
      "charge": 0
    },
    {
      "aid": 53,
      "element": "H",
      "x": 18.4354,
      "y": 0.2131,
      "z": null,
      "charge": 0
    },
    {
      "aid": 54,
      "element": "H",
      "x": 18.6623,
      "y": 1.06,
      "z": null,
      "charge": 0
    },
    {
      "aid": 55,
      "element": "H",
      "x": 17.8154,
      "y": 1.2869,
      "z": null,
      "charge": 0
    },
    {
      "aid": 56,
      "element": "H",
      "x": 2,
      "y": 0.44,
      "z": null,
      "charge": 0
    }
  ],
  "bonds": [
    {
      "aid1": 1,
      "aid2": 20,
      "order": 1
    },
    {
      "aid1": 1,
      "aid2": 56,
      "order": 1
    },
    {
      "aid1": 2,
      "aid2": 20,
      "order": 2
    },
    {
      "aid1": 3,
      "aid2": 4,
      "order": 1
    },
    {
      "aid1": 3,
      "aid2": 5,
      "order": 1
    },
    {
      "aid1": 3,
      "aid2": 21,
      "order": 1
    },
    {
      "aid1": 3,
      "aid2": 22,
      "order": 1
    },
    {
      "aid1": 4,
      "aid2": 6,
      "order": 1
    },
    {
      "aid1": 4,
      "aid2": 23,
      "order": 1
    },
    {
      "aid1": 4,
      "aid2": 24,
      "order": 1
    },
    {
      "aid1": 5,
      "aid2": 7,
      "order": 1
    },
    {
      "aid1": 5,
      "aid2": 25,
      "order": 1
    },
    {
      "aid1": 5,
      "aid2": 26,
      "order": 1
    },
    {
      "aid1": 6,
      "aid2": 8,
      "order": 1
    },
    {
      "aid1": 6,
      "aid2": 27,
      "order": 1
    },
    {
      "aid1": 6,
      "aid2": 28,
      "order": 1
    },
    {
      "aid1": 7,
      "aid2": 9,
      "order": 1
    },
    {
      "aid1": 7,
      "aid2": 29,
      "order": 1
    },
    {
      "aid1": 7,
      "aid2": 30,
      "order": 1
    },
    {
      "aid1": 8,
      "aid2": 10,
      "order": 1
    },
    {
      "aid1": 8,
      "aid2": 31,
      "order": 1
    },
    {
      "aid1": 8,
      "aid2": 32,
      "order": 1
    },
    {
      "aid1": 9,
      "aid2": 11,
      "order": 1
    },
    {
      "aid1": 9,
      "aid2": 33,
      "order": 1
    },
    {
      "aid1": 9,
      "aid2": 34,
      "order": 1
    },
    {
      "aid1": 10,
      "aid2": 12,
      "order": 1
    },
    {
      "aid1": 10,
      "aid2": 35,
      "order": 1
    },
    {
      "aid1": 10,
      "aid2": 36,
      "order": 1
    },
    {
      "aid1": 11,
      "aid2": 13,
      "order": 1
    },
    {
      "aid1": 11,
      "aid2": 37,
      "order": 1
    },
    {
      "aid1": 11,
      "aid2": 38,
      "order": 1
    },
    {
      "aid1": 12,
      "aid2": 14,
      "order": 1
    },
    {
      "aid1": 12,
      "aid2": 39,
      "order": 1
    },
    {
      "aid1": 12,
      "aid2": 40,
      "order": 1
    },
    {
      "aid1": 13,
      "aid2": 15,
      "order": 1
    },
    {
      "aid1": 13,
      "aid2": 41,
      "order": 1
    },
    {
      "aid1": 13,
      "aid2": 42,
      "order": 1
    },
    {
      "aid1": 14,
      "aid2": 16,
      "order": 1
    },
    {
      "aid1": 14,
      "aid2": 43,
      "order": 1
    },
    {
      "aid1": 14,
      "aid2": 44,
      "order": 1
    },
    {
      "aid1": 15,
      "aid2": 17,
      "order": 1
    },
    {
      "aid1": 15,
      "aid2": 45,
      "order": 1
    },
    {
      "aid1": 15,
      "aid2": 46,
      "order": 1
    },
    {
      "aid1": 16,
      "aid2": 18,
      "order": 1
    },
    {
      "aid1": 16,
      "aid2": 47,
      "order": 1
    },
    {
      "aid1": 16,
      "aid2": 48,
      "order": 1
    },
    {
      "aid1": 17,
      "aid2": 19,
      "order": 1
    },
    {
      "aid1": 17,
      "aid2": 49,
      "order": 1
    },
    {
      "aid1": 17,
      "aid2": 50,
      "order": 1
    },
    {
      "aid1": 18,
      "aid2": 20,
      "order": 1
    },
    {
      "aid1": 18,
      "aid2": 51,
      "order": 1
    },
    {
      "aid1": 18,
      "aid2": 52,
      "order": 1
    },
    {
      "aid1": 19,
      "aid2": 53,
      "order": 1
    },
    {
      "aid1": 19,
      "aid2": 54,
      "order": 1
    },
    {
      "aid1": 19,
      "aid2": 55,
      "order": 1
    }
  ],
  "coordinate_type": "2d",
  "charge": 0,
  "molecular_formula": "C18H36O2",
  "molecular_weight": "284.5",
  "canonical_smiles": "CCCCCCCCCCCCCCCCCC(=O)O",
  "isomeric_smiles": "CCCCCCCCCCCCCCCCCC(=O)O",
  "inchi": "InChI=1S/C18H36O2/c1-2-3-4-5-6-7-8-9-10-11-12-13-14-15-16-17-18(19)20/h2-17H2,1H3,(H,19,20)",
  "inchikey": "QIQXTHQIDYTFRH-UHFFFAOYSA-N",
  "iupac_name": "octadecanoic acid",
  "xlogp": 7.4,
  "exact_mass": "284.271530387",
  "monoisotopic_mass": "284.271530387",
  "tpsa": 37.3,
  "complexity": 202,
  "h_bond_donor_count": 1,
  "h_bond_acceptor_count": 2,
  "rotatable_bond_count": 16,
  "fingerprint": "00000371F0783000000000000000000000000000000000000000000000000000000000000000001A0000080000080080800002080000020008000090080000000000000000000100000000001200000000400004000000000188C8A08000000000000000000000000000000000000000000000",
  "cactvs_fingerprint": "11110000011110000011000000000000000000000000000000000000000000000000000000000000000000000000000000000000000000000000000000000000000000000000000000000000000000000000000000000000000000000000000000000000000000000000000000000000000000000000000000000000000000000000000000000000000000000001101000000000000000000000100000000000000000000000100000000000100000001000000000000000000000100000100000000000000000000000001000000000000010000000000000000000100100000000100000000000000000000000000000000000000000000000000000000000000000000000000000000001000000000000000000000000000000000000000000010010000000000000000000000000000000000100000000000000000001000000000000000000000000000000000000000001100010001100100010100000100000000000000000000000000000000000000000000000000000000000000000000000000000000000000000000000000000000000000000000000000000000000000000000000000000000000000000000000000000000",
  "heavy_atom_count": 20,
  "isotope_atom_count": 0,
  "atom_stereo_count": 0,
  "defined_atom_stereo_count": 0,
  "undefined_atom_stereo_count": 0,
  "bond_stereo_count": 0,
  "defined_bond_stereo_count": 0,
  "undefined_bond_stereo_count": 0,
  "covalent_unit_count": 1,
  "volume_3d": null,
  "multipoles_3d": null,
  "conformer_rmsd_3d": null,
  "effective_rotor_count_3d": null,
  "pharmacophore_features_3d": null,
  "mmff94_partial_charges_3d": null,
  "mmff94_energy_3d": null,
  "conformer_id_3d": null,
  "shape_selfoverlap_3d": null,
  "feature_selfoverlap_3d": null,
  "shape_fingerprint_3d": null
}