{
  "CID": 6780,
  "name": "anthracene-9,10-dione",
  "synonyms": [
    "(p) Anthrapel",
    "030MS0JBDO",
    "1,4-bis-[2-(2-hydroxy-ethylamino)-ethylamino]-anthraquinone",
    "201-549-0",
    "71730-08-0",
    "84-65-1",
    "9,10-Anthracendion",
    "9,10-Anthracendione",
    "9,10-Anthracenedione",
    "9,10-Anthrachinon",
    "9,10-Anthrachinon [Czech]",
    "9,10-Anthraguinone",
    "9,10-Anthraquinone",
    "9,10-Dihydro-9,10-diketoanthracene",
    "9,10-Dioxoanthracene",
    "9,10-anthraquinone;9,10-anthracenedione;anthraquinone;anthracene-9,10-dione;9,10-anthraquinone 9,10-anthracenedione anthraquinone anthracene-9,10-dione",
    "9,10-dihydro-9,10-dioxoanthracene",
    "9,10-dihydroanthracene-9,10-dione",
    "9,10-quinone",
    "9TA",
    "A-8000",
    "A0502",
    "AB-131/40003277",
    "AC-12719",
    "AI3-09073",
    "AKOS000282964",
    "ANTHRAQUINONE",
    "ANTHRAQUINONE (IARC)",
    "ANTHRAQUINONE [HSDB]",
    "ANTHRAQUINONE [IARC]",
    "ANTHRAQUINONE [ISO]",
    "ANTHRAQUINONE [MI]",
    "Anthra-9,10-quinone",
    "Anthra-9,10-quinone #",
    "Anthracene, 9,10-dihydro-9,10-dioxo-",
    "Anthracene,10-dihydro-9,10-dioxo-",
    "Anthracene-9,10-quinone",
    "Anthrachinon",
    "Anthradione",
    "Anthrapel",
    "Anthraquinone (Standard)",
    "Anthraquinone 100 microg/mL in Acetonitrile",
    "Anthraquinone [BSI:ISO]",
    "Anthraquinone, 97%",
    "Anthraquinone, PESTANAL(R), analytical standard",
    "Anthraquinone, Vetec(TM) reagent grade, 97%",
    "Anthraquinone, analytical standard",
    "Avipel",
    "Az-Q",
    "BDBM50094892",
    "BRD-K15957397-001-03-4",
    "BRD-K15957397-001-04-2",
    "BSPBio_003141",
    "CAS-84-65-1",
    "CCG-39966",
    "CCRIS 649",
    "CHEBI:40448",
    "CHEMBL55659",
    "CS-0008907",
    "Caswell No. 052A",
    "Corbit",
    "DB-005409",
    "DS-4810",
    "DTXCID9095",
    "DTXSID3020095",
    "DivK1c_006741",
    "EC 201-549-0",
    "EINECS 201-549-0",
    "EN300-71612",
    "EPA Pesticide Chemical Code 122701",
    "Epitope ID:116191",
    "F0001-2133",
    "FLIGHT CONTROL",
    "HMS1921J14",
    "HSDB 2074",
    "HY-N0354",
    "HY-N0354R",
    "Hoelite",
    "InChI=1/C14H8O2/c15-13-9-5-1-2-6-10(9)14(16)12-8-4-3-7-11(12)13/h1-8",
    "KBio1_001685",
    "KBio2_002007",
    "KBio2_004575",
    "KBio2_007143",
    "KBio3_002641",
    "KBioGR_001374",
    "KBioSS_002007",
    "Kawasaki saq",
    "MFCD00001188",
    "Melting point standard 283-286C, analytical standard",
    "Morkit",
    "NCGC00094960-01",
    "NCGC00094960-02",
    "NCGC00094960-03",
    "NCGC00094960-04",
    "NCGC00094960-06",
    "NCGC00094960-07",
    "NS00010810",
    "NSC 7957",
    "NSC-7957",
    "NSC7957",
    "Q423174",
    "SAQ",
    "SCHEMBL14943",
    "SPBio_000330",
    "SPECTRUM1502103",
    "SR-01000944707",
    "SR-01000944707-1",
    "STK398385",
    "SpecPlus_000645",
    "Spectrum2_000405",
    "Spectrum3_001501",
    "Spectrum4_000907",
    "Spectrum5_001897",
    "Spectrum_001527",
    "Tox21_111369",
    "Tox21_111369_1",
    "UNII-030MS0JBDO",
    "USEPA/OPP Pesticide Code: 122701",
    "Z1142688857",
    "an anthraquinone derivative",
    "anthracene-9,10-dione",
    "anthracenequinones",
    "s5168"
  ],
  "CAS": [
    "71730-08-0",
    "84-65-1"
  ],
  "M": 208.21,
  "formula": "C14H8O2",
  "SMILES": "C1=CC=C2C(=C1)C(=O)C3=CC=CC=C3C2=O",
  "InChi": "InChI=1S/C14H8O2/c15-13-9-5-1-2-6-10(9)14(16)12-8-4-3-7-11(12)13/h1-8H",
  "InChiKey": "RZVHIXYEVGDQDX-UHFFFAOYSA-N",
  "logP": 3.4,
  "date": "2025-04-01"
}