{
  "cid": 6780,
  "synonyms": [
    "ANTHRAQUINONE",
    "84-65-1",
    "anthracene-9,10-dione",
    "9,10-Anthraquinone",
    "9,10-Anthracenedione",
    "Anthradione",
    "9,10-Dioxoanthracene",
    "Hoelite",
    "Morkit",
    "Corbit",
    "9,10-Anthrachinon",
    "Anthra-9,10-quinone",
    "Anthrachinon",
    "Anthrapel",
    "9,10-quinone",
    "Az-Q",
    "Avipel",
    "Kawasaki saq",
    "Caswell No. 052A",
    "NSC 7957",
    "9,10-Anthracendion",
    "CCRIS 649",
    "DTXSID3020095",
    "CHEBI:40448",
    "HSDB 2074",
    "Anthracene, 9,10-dihydro-9,10-dioxo-",
    "Anthracene-9,10-quinone",
    "UNII-030MS0JBDO",
    "EINECS 201-549-0",
    "030MS0JBDO",
    "EPA Pesticide Chemical Code 122701",
    "FLIGHT CONTROL",
    "AI3-09073",
    "NSC-7957",
    "9,10-dihydroanthracene-9,10-dione",
    "MFCD00001188",
    "DTXCID9095",
    "CHEMBL55659",
    "NSC7957",
    "EC 201-549-0",
    "NCGC00094960-03",
    "Anthraquinone 100 microg/mL in Acetonitrile",
    "ANTHRAQUINONE (IARC)",
    "ANTHRAQUINONE [IARC]",
    "1,4-bis-[2-(2-hydroxy-ethylamino)-ethylamino]-anthraquinone",
    "Anthraquinone [BSI:ISO]",
    "CAS-84-65-1",
    "SAQ",
    "9,10-Anthrachinon [Czech]",
    "9,10-dihydro-9,10-dioxoanthracene",
    "anthracenequinones",
    "(p) Anthrapel",
    "9,10-Anthraguinone",
    "Anthraquinone, 97%",
    "9,10-Anthracendione",
    "Spectrum_001527",
    "SpecPlus_000645",
    "Anthraquinone (Standard)",
    "Spectrum2_000405",
    "Spectrum3_001501",
    "Spectrum4_000907",
    "Spectrum5_001897",
    "an anthraquinone derivative",
    "ANTHRAQUINONE [MI]",
    "Anthra-9,10-quinone #",
    "Epitope ID:116191",
    "ANTHRAQUINONE [ISO]",
    "ANTHRAQUINONE [HSDB]",
    "SCHEMBL14943",
    "BSPBio_003141",
    "KBioGR_001374",
    "KBioSS_002007",
    "DivK1c_006741",
    "SPECTRUM1502103",
    "SPBio_000330",
    "HY-N0354R",
    "KBio1_001685",
    "KBio2_002007",
    "KBio2_004575",
    "KBio2_007143",
    "KBio3_002641",
    "Anthraquinone, analytical standard",
    "HMS1921J14",
    "HY-N0354",
    "Tox21_111369",
    "BDBM50094892",
    "CCG-39966",
    "s5168",
    "STK398385",
    "Anthracene,10-dihydro-9,10-dioxo-",
    "9,10-Dihydro-9,10-diketoanthracene",
    "AKOS000282964",
    "Tox21_111369_1",
    "DS-4810",
    "USEPA/OPP Pesticide Code: 122701",
    "NCGC00094960-01",
    "NCGC00094960-02",
    "NCGC00094960-04",
    "NCGC00094960-06",
    "NCGC00094960-07",
    "AC-12719",
    "DB-005409",
    "A0502",
    "CS-0008907",
    "NS00010810",
    "Anthraquinone, Vetec(TM) reagent grade, 97%",
    "EN300-71612",
    "A-8000",
    "Anthraquinone, PESTANAL(R), analytical standard",
    "AB-131/40003277",
    "Q423174",
    "SR-01000944707",
    "SR-01000944707-1",
    "BRD-K15957397-001-03-4",
    "BRD-K15957397-001-04-2",
    "Melting point standard 283-286C, analytical standard",
    "F0001-2133",
    "Z1142688857",
    "201-549-0",
    "71730-08-0",
    "9,10-anthraquinone;9,10-anthracenedione;anthraquinone;anthracene-9,10-dione;9,10-anthraquinone 9,10-anthracenedione anthraquinone anthracene-9,10-dione",
    "9TA",
    "InChI=1/C14H8O2/c15-13-9-5-1-2-6-10(9)14(16)12-8-4-3-7-11(12)13/h1-8"
  ],
  "sids": [
    73713,
    588831,
    597153,
    3132030,
    6775794,
    8154403,
    10536884,
    11341916,
    11362099,
    11364421,
    11366983,
    11369545,
    11372740,
    11374513,
    11377707,
    11484066,
    11487501,
    11488221,
    11491316,
    11492722,
    11495341,
    14709899,
    15438863,
    24891393,
    26612301,
    26679544,
    26697336,
    26705432,
    26748611,
    26748612,
    26753735,
    29203845,
    31552163,
    31552166,
    35227245,
    37617033,
    38391838,
    47205515,
    48185306,
    48259566,
    48413222,
    48414971,
    48416905,
    48422868,
    49855946,
    50107436,
    50370694,
    57323707,
    57391281,
    58035060,
    85175884,
    87562113,
    88826154,
    92124438,
    92711921,
    92729830,
    103239574,
    103811652,
    103992734,
    104313045,
    104831387,
    117598266,
    124637788,
    126537067,
    126630396,
    126678232,
    127990346,
    128875644,
    128877850,
    129072096,
    129185727,
    129205580,
    129260197,
    131327751,
    134972333,
    135564856,
    142293373,
    143434848,
    143512378,
    144204922,
    160805323,
    162179075,
    162220227,
    162297269,
    163415454,
    163563831,
    163714878,
    163806295,
    164806515,
    169942553,
    170466833,
    173581372,
    174557420,
    175442138,
    176255255,
    179038869,
    198966170,
    201503027,
    204380175,
    223555035,
    223682802,
    223771222,
    225230470,
    226405476,
    241155275,
    249844553,
    250059388,
    250216428,
    251919625,
    252262044,
    252402430,
    252403651,
    255442035,
    257076910,
    268736103,
    273954756,
    275923406,
    290005460,
    310266932,
    312236464,
    312605319,
    312677110,
    312996472,
    315493171,
    315671096,
    316394282,
    319064847,
    319064848,
    321908089,
    321948156,
    322918242,
    329753778,
    329760560,
    329818484,
    329830134,
    335959175,
    340085987,
    340507914,
    340513351,
    341139435,
    342509769,
    346694017,
    347811669,
    349354105,
    349989334,
    354322696,
    354748423,
    354795447,
    355144741,
    355205904,
    355246190,
    363596822,
    363898599,
    374061162,
    374168431,
    375171942,
    375344941,
    375639088,
    375932808,
    375986577,
    376136435,
    376226420,
    376639823,
    378013642,
    381000759,
    381007493,
    381029582,
    381326995,
    381353594,
    382165360,
    382371637,
    383409613,
    384653625,
    385785121,
    385834856,
    385841430,
    385879107,
    385879108,
    385879109,
    385879110,
    385879111,
    386264157,
    386393417,
    386622049,
    387151870,
    387266090,
    402288282,
    402316426,
    402316427,
    403030631,
    404639407,
    404744156,
    404755539,
    404783690,
    405238065,
    405425514,
    406543734,
    406676719,
    419526655,
    433776034,
    433970643,
    434146876,
    434386805,
    438463842,
    438611506,
    438795328,
    439458877,
    440065729,
    441095066,
    441294750,
    441634461,
    443441705,
    443830253,
    445361394,
    445432972,
    446198166,
    446471579,
    447222669,
    459209661,
    459209662,
    459209663,
    459237368,
    461478243,
    461595316,
    462370336,
    463934446,
    464588115,
    469003786,
    470732234,
    472430579,
    472457727,
    472830329,
    472830330,
    472957378,
    474181293,
    475520980,
    478235079,
    478261232,
    479827075,
    481106897,
    482142756,
    482318861,
    485238642,
    485403032,
    485513152,
    488318565,
    488964333,
    489029788,
    489251511,
    490647574,
    491521376,
    491759371,
    495968209,
    495968210,
    495968211,
    496153469,
    500581670,
    500980350,
    503320357,
    504096402,
    504751170,
    505999247,
    507585606
  ],
  "aids": [
    155,
    157,
    161,
    165,
    167,
    175,
    248,
    256,
    875,
    880,
    881,
    884,
    885,
    887,
    889,
    892,
    893,
    894,
    900,
    902,
    910,
    923,
    924,
    927,
    930,
    940,
    995,
    1030,
    1188,
    1189,
    1194,
    1199,
    1205,
    1379,
    1422,
    1452,
    1454,
    1457,
    1458,
    1460,
    1463,
    1467,
    1468,
    1469,
    1471,
    1476,
    1477,
    1478,
    1479,
    1487,
    1490,
    1519,
    1688,
    1766,
    1768,
    1865,
    1948,
    2101,
    2107,
    2112,
    2147,
    2451,
    2472,
    2517,
    2528,
    2546,
    2549,
    2551,
    2662,
    102409,
    102410,
    102411,
    144609,
    144610,
    158679,
    343962,
    398698,
    398699,
    417086,
    417087,
    417088,
    417089,
    485281,
    485290,
    485350,
    492961,
    493033,
    504327,
    504332,
    504749,
    504770,
    504832,
    504834,
    504847,
    504865,
    540299,
    588513,
    588514,
    588515,
    588516,
    588519,
    588526,
    588527,
    588532,
    588533,
    588534,
    588535,
    588536,
    588537,
    588541,
    588543,
    588544,
    588545,
    588546,
    588547,
    588579,
    588834,
    589073,
    602314,
    602332,
    624030,
    624031,
    624032,
    624044,
    624170,
    624172,
    624173,
    624296,
    624297,
    624349,
    624606,
    651631,
    651632,
    651633,
    651634,
    651635,
    651741,
    651743,
    651749,
    651751,
    651777,
    651778,
    651838,
    652048,
    652051,
    686978,
    686979,
    720516,
    720532,
    720533,
    720552,
    720579,
    720580,
    720634,
    720635,
    720636,
    720637,
    720653,
    720659,
    720674,
    720675,
    720678,
    720679,
    720680,
    720681,
    720682,
    720683,
    720684,
    720685,
    720686,
    720687,
    720691,
    720692,
    720693,
    720717,
    720719,
    720725,
    729915,
    729917,
    729918,
    729919,
    729920,
    743012,
    743014,
    743015,
    743033,
    743035,
    743036,
    743040,
    743041,
    743042,
    743053,
    743054,
    743063,
    743064,
    743065,
    743066,
    743067,
    743069,
    743074,
    743075,
    743077,
    743078,
    743079,
    743080,
    743081,
    743083,
    743084,
    743085,
    743086,
    743091,
    743094,
    743122,
    743139,
    743140,
    743191,
    743194,
    743199,
    743202,
    743203,
    743209,
    743210,
    743211,
    743212,
    743213,
    743215,
    743217,
    743218,
    743219,
    743220,
    743221,
    743222,
    743223,
    743224,
    743225,
    743226,
    743227,
    743228,
    743239,
    743240,
    743241,
    743242,
    743244,
    743288,
    743292,
    977599,
    977602,
    1083211,
    1102414,
    1102415,
    1102416,
    1102417,
    1102418,
    1102419,
    1102420,
    1102421,
    1102422,
    1102423,
    1102424,
    1102425,
    1102426,
    1102427,
    1112558,
    1112559,
    1112566,
    1117298,
    1117304,
    1117305,
    1117310,
    1117312,
    1117314,
    1117326,
    1117329,
    1117336,
    1117340,
    1117341,
    1117342,
    1117343,
    1117346,
    1159509,
    1159515,
    1159516,
    1159517,
    1159518,
    1159519,
    1159520,
    1159521,
    1159523,
    1159524,
    1159525,
    1159526,
    1159527,
    1159528,
    1159529,
    1159531,
    1159550,
    1159551,
    1159552,
    1159553,
    1159555,
    1159580,
    1159607,
    1159614,
    1224834,
    1224835,
    1224836,
    1224837,
    1224838,
    1224839,
    1224840,
    1224841,
    1224842,
    1224843,
    1224844,
    1224845,
    1224846,
    1224847,
    1224848,
    1224849,
    1224857,
    1224859,
    1224867,
    1224868,
    1224869,
    1224870,
    1224871,
    1224872,
    1224873,
    1224874,
    1224875,
    1224876,
    1224877,
    1224878,
    1224879,
    1224880,
    1224881,
    1224882,
    1224883,
    1224884,
    1224885,
    1224886,
    1224887,
    1224888,
    1224889,
    1224890,
    1224892,
    1224893,
    1224894,
    1224895,
    1224896,
    1259241,
    1259242,
    1259243,
    1259244,
    1259247,
    1259248,
    1259251,
    1259344,
    1259355,
    1259356,
    1259364,
    1259365,
    1259366,
    1259367,
    1259368,
    1259369,
    1259377,
    1259378,
    1259379,
    1259380,
    1259381,
    1259382,
    1259383,
    1259384,
    1259385,
    1259386,
    1259387,
    1259388,
    1259389,
    1259390,
    1259391,
    1259392,
    1259393,
    1259394,
    1259395,
    1259396,
    1259398,
    1259399,
    1259400,
    1259401,
    1259402,
    1259403,
    1259404,
    1259407,
    1259411,
    1259416,
    1259421,
    1296008,
    1296009,
    1345084,
    1345086,
    1345199,
    1346200,
    1346378,
    1346428,
    1346784,
    1346795,
    1346798,
    1346799,
    1346824,
    1346829,
    1346859,
    1346877,
    1346891,
    1346924,
    1346977,
    1346978,
    1346979,
    1346980,
    1346981,
    1346982,
    1346983,
    1346984,
    1346985,
    1346986,
    1346987,
    1347030,
    1347031,
    1347032,
    1347033,
    1347034,
    1347035,
    1347036,
    1347037,
    1347038,
    1347053,
    1347055,
    1347082,
    1347083,
    1347085,
    1347086,
    1347089,
    1347090,
    1347091,
    1347092,
    1347093,
    1347094,
    1347095,
    1347096,
    1347097,
    1347098,
    1347099,
    1347100,
    1347101,
    1347102,
    1347103,
    1347104,
    1347105,
    1347106,
    1347107,
    1347108,
    1347131,
    1347154,
    1347395,
    1347397,
    1347398,
    1347399,
    1347407,
    1347424,
    1347425,
    1374895,
    1374896,
    1374897,
    1374898,
    1374899,
    1374900,
    1374901,
    1374902,
    1409598,
    1435048,
    1479145,
    1479147,
    1479149,
    1479150,
    1508601,
    1508616,
    1508620,
    1508623,
    1508624,
    1508626,
    1508630,
    1536188,
    1640020,
    1645758,
    1645839,
    1645840,
    1645841,
    1645842,
    1645845,
    1645846,
    1645851,
    1645870,
    1645876,
    1645877,
    1645882,
    1645883,
    1645886,
    1645887,
    1671188,
    1671190,
    1671193,
    1671194,
    1671196,
    1671197,
    1671198,
    1671199,
    1671200,
    1671201,
    1745844,
    1745845,
    1745854,
    1745855,
    1745856,
    1745857,
    1749710,
    1749711,
    1794808,
    1845191,
    1845192,
    1888748,
    1888752,
    1919968,
    1919969,
    1919970,
    1920063,
    1920064,
    1920065,
    1920067,
    1920068,
    1963577,
    1963578,
    1963579,
    1963580,
    1963581,
    1963582,
    1963583,
    1963584,
    1963585,
    1963596,
    1963988
  ],
  "elements": [
    "O",
    "O",
    "C",
    "C",
    "C",
    "C",
    "C",
    "C",
    "C",
    "C",
    "C",
    "C",
    "C",
    "C",
    "C",
    "C",
    "H",
    "H",
    "H",
    "H",
    "H",
    "H",
    "H",
    "H"
  ],
  "atoms": [
    {
      "aid": 1,
      "element": "O",
      "x": 4.666,
      "y": -2,
      "z": null,
      "charge": 0
    },
    {
      "aid": 2,
      "element": "O",
      "x": 4.666,
      "y": 2,
      "z": null,
      "charge": 0
    },
    {
      "aid": 3,
      "element": "C",
      "x": 3.8,
      "y": 0.5,
      "z": null,
      "charge": 0
    },
    {
      "aid": 4,
      "element": "C",
      "x": 3.8,
      "y": -0.5,
      "z": null,
      "charge": 0
    },
    {
      "aid": 5,
      "element": "C",
      "x": 5.5321,
      "y": 0.5,
      "z": null,
      "charge": 0
    },
    {
      "aid": 6,
      "element": "C",
      "x": 5.5321,
      "y": -0.5,
      "z": null,
      "charge": 0
    },
    {
      "aid": 7,
      "element": "C",
      "x": 4.666,
      "y": -1,
      "z": null,
      "charge": 0
    },
    {
      "aid": 8,
      "element": "C",
      "x": 4.666,
      "y": 1,
      "z": null,
      "charge": 0
    },
    {
      "aid": 9,
      "element": "C",
      "x": 2.9061,
      "y": 1.0347,
      "z": null,
      "charge": 0
    },
    {
      "aid": 10,
      "element": "C",
      "x": 2.9061,
      "y": -1.0347,
      "z": null,
      "charge": 0
    },
    {
      "aid": 11,
      "element": "C",
      "x": 6.426,
      "y": 1.0347,
      "z": null,
      "charge": 0
    },
    {
      "aid": 12,
      "element": "C",
      "x": 6.426,
      "y": -1.0347,
      "z": null,
      "charge": 0
    },
    {
      "aid": 13,
      "element": "C",
      "x": 2,
      "y": -0.5208,
      "z": null,
      "charge": 0
    },
    {
      "aid": 14,
      "element": "C",
      "x": 7.3321,
      "y": -0.5208,
      "z": null,
      "charge": 0
    },
    {
      "aid": 15,
      "element": "C",
      "x": 7.3321,
      "y": 0.5208,
      "z": null,
      "charge": 0
    },
    {
      "aid": 16,
      "element": "C",
      "x": 2,
      "y": 0.5208,
      "z": null,
      "charge": 0
    },
    {
      "aid": 17,
      "element": "H",
      "x": 2.9132,
      "y": 1.6546,
      "z": null,
      "charge": 0
    },
    {
      "aid": 18,
      "element": "H",
      "x": 2.9132,
      "y": -1.6546,
      "z": null,
      "charge": 0
    },
    {
      "aid": 19,
      "element": "H",
      "x": 6.4188,
      "y": 1.6546,
      "z": null,
      "charge": 0
    },
    {
      "aid": 20,
      "element": "H",
      "x": 6.4188,
      "y": -1.6546,
      "z": null,
      "charge": 0
    },
    {
      "aid": 21,
      "element": "H",
      "x": 1.4643,
      "y": -0.8329,
      "z": null,
      "charge": 0
    },
    {
      "aid": 22,
      "element": "H",
      "x": 7.8678,
      "y": -0.8329,
      "z": null,
      "charge": 0
    },
    {
      "aid": 23,
      "element": "H",
      "x": 7.8678,
      "y": 0.8329,
      "z": null,
      "charge": 0
    },
    {
      "aid": 24,
      "element": "H",
      "x": 1.4643,
      "y": 0.8329,
      "z": null,
      "charge": 0
    }
  ],
  "bonds": [
    {
      "aid1": 1,
      "aid2": 7,
      "order": 2
    },
    {
      "aid1": 2,
      "aid2": 8,
      "order": 2
    },
    {
      "aid1": 3,
      "aid2": 4,
      "order": 1
    },
    {
      "aid1": 3,
      "aid2": 8,
      "order": 1
    },
    {
      "aid1": 3,
      "aid2": 9,
      "order": 2
    },
    {
      "aid1": 4,
      "aid2": 7,
      "order": 1
    },
    {
      "aid1": 4,
      "aid2": 10,
      "order": 2
    },
    {
      "aid1": 5,
      "aid2": 6,
      "order": 1
    },
    {
      "aid1": 5,
      "aid2": 8,
      "order": 1
    },
    {
      "aid1": 5,
      "aid2": 11,
      "order": 2
    },
    {
      "aid1": 6,
      "aid2": 7,
      "order": 1
    },
    {
      "aid1": 6,
      "aid2": 12,
      "order": 2
    },
    {
      "aid1": 9,
      "aid2": 16,
      "order": 1
    },
    {
      "aid1": 9,
      "aid2": 17,
      "order": 1
    },
    {
      "aid1": 10,
      "aid2": 13,
      "order": 1
    },
    {
      "aid1": 10,
      "aid2": 18,
      "order": 1
    },
    {
      "aid1": 11,
      "aid2": 15,
      "order": 1
    },
    {
      "aid1": 11,
      "aid2": 19,
      "order": 1
    },
    {
      "aid1": 12,
      "aid2": 14,
      "order": 1
    },
    {
      "aid1": 12,
      "aid2": 20,
      "order": 1
    },
    {
      "aid1": 13,
      "aid2": 16,
      "order": 2
    },
    {
      "aid1": 13,
      "aid2": 21,
      "order": 1
    },
    {
      "aid1": 14,
      "aid2": 15,
      "order": 2
    },
    {
      "aid1": 14,
      "aid2": 22,
      "order": 1
    },
    {
      "aid1": 15,
      "aid2": 23,
      "order": 1
    },
    {
      "aid1": 16,
      "aid2": 24,
      "order": 1
    }
  ],
  "coordinate_type": "2d",
  "charge": 0,
  "molecular_formula": "C14H8O2",
  "molecular_weight": "208.21",
  "canonical_smiles": "C1=CC=C2C(=C1)C(=O)C3=CC=CC=C3C2=O",
  "isomeric_smiles": "C1=CC=C2C(=C1)C(=O)C3=CC=CC=C3C2=O",
  "inchi": "InChI=1S/C14H8O2/c15-13-9-5-1-2-6-10(9)14(16)12-8-4-3-7-11(12)13/h1-8H",
  "inchikey": "RZVHIXYEVGDQDX-UHFFFAOYSA-N",
  "iupac_name": "anthracene-9,10-dione",
  "xlogp": 3.4,
  "exact_mass": "208.052429494",
  "monoisotopic_mass": "208.052429494",
  "tpsa": 34.1,
  "complexity": 261,
  "h_bond_donor_count": 0,
  "h_bond_acceptor_count": 2,
  "rotatable_bond_count": 0,
  "fingerprint": "00000371C07030000000000000000000000000000000000000003060C0000000000000C14000001A00000000000C048098003000800000008802A05200000200002400000888010000C80820328015108021002080000889870988C08E80000000001000008000040000200000000000000000",
  "cactvs_fingerprint": "11000000011100000011000000000000000000000000000000000000000000000000000000000000000000000000000000000000000000000000000000000000000000000000000000000000000000000000000000000000001100000110000011000000000000000000000000000000000000000000000000000000110000010100000000000000000000000001101000000000000000000000000000000000000000000000110000000100100000001001100000000000001100000000000010000000000000000000000000000000100010000000001010100000010100100000000000000000000000100000000000000000001001000000000000000000000010001000100000000001000000000000000011001000000010000010000000110010100000000001010100010000100000000010000100000000001000001000000000000000000010001000100110000111000010011000100011000000100011101000000000000000000000000000000000000000000100000000000000000000100000000000000000000100000000000000000000100000000000000000000000000000000000000000000000000000000000000",
  "heavy_atom_count": 16,
  "isotope_atom_count": 0,
  "atom_stereo_count": 0,
  "defined_atom_stereo_count": 0,
  "undefined_atom_stereo_count": 0,
  "bond_stereo_count": 0,
  "defined_bond_stereo_count": 0,
  "undefined_bond_stereo_count": 0,
  "covalent_unit_count": 1,
  "volume_3d": null,
  "multipoles_3d": null,
  "conformer_rmsd_3d": null,
  "effective_rotor_count_3d": null,
  "pharmacophore_features_3d": null,
  "mmff94_partial_charges_3d": null,
  "mmff94_energy_3d": null,
  "conformer_id_3d": null,
  "shape_selfoverlap_3d": null,
  "feature_selfoverlap_3d": null,
  "shape_fingerprint_3d": null
}