103255
  -OEChem-04042505432D

101100  0     1  0  0  0  0  0999 V2000
    7.1962   -0.0950    0.0000 Ca  0  2  0  0  0  0  0  0  0  0  0  0
    6.3301    1.4050    0.0000 P   0  0  3  0  0  0  0  0  0  0  0  0
    8.0622   -1.5950    0.0000 P   0  0  3  0  0  0  0  0  0  0  0  0
    2.8660    4.4050    0.0000 O   0  0  0  0  0  0  0  0  0  0  0  0
    8.9282   -6.0950    0.0000 O   0  0  0  0  0  0  0  0  0  0  0  0
    7.3301    1.4050    0.0000 O   0  0  0  0  0  0  0  0  0  0  0  0
    7.5622   -2.4610    0.0000 O   0  0  0  0  0  0  0  0  0  0  0  0
    6.3301    0.4050    0.0000 O   0  5  0  0  0  0  0  0  0  0  0  0
    7.1962   -1.0950    0.0000 O   0  5  0  0  0  0  0  0  0  0  0  0
    5.3301    1.4050    0.0000 O   0  0  0  0  0  0  0  0  0  0  0  0
    8.5622   -0.7290    0.0000 O   0  0  0  0  0  0  0  0  0  0  0  0
    4.5981    5.4050    0.0000 C   0  0  0  0  0  0  0  0  0  0  0  0
    7.1962   -5.0950    0.0000 C   0  0  0  0  0  0  0  0  0  0  0  0
    2.8660    2.4050    0.0000 C   0  0  0  0  0  0  0  0  0  0  0  0
   10.6603   -5.0950    0.0000 C   0  0  0  0  0  0  0  0  0  0  0  0
    4.5981    4.4050    0.0000 C   0  0  0  0  0  0  0  0  0  0  0  0
    8.0622   -4.5950    0.0000 C   0  0  0  0  0  0  0  0  0  0  0  0
    3.7320    2.9050    0.0000 C   0  0  0  0  0  0  0  0  0  0  0  0
    9.7942   -4.5950    0.0000 C   0  0  0  0  0  0  0  0  0  0  0  0
    3.7320    3.9050    0.0000 C   0  0  0  0  0  0  0  0  0  0  0  0
    8.9282   -5.0950    0.0000 C   0  0  0  0  0  0  0  0  0  0  0  0
    5.4641    2.9050    0.0000 C   0  0  0  0  0  0  0  0  0  0  0  0
    8.9282   -3.0950    0.0000 C   0  0  0  0  0  0  0  0  0  0  0  0
    5.4641    3.9050    0.0000 C   0  0  0  0  0  0  0  0  0  0  0  0
    8.0622   -3.5950    0.0000 C   0  0  0  0  0  0  0  0  0  0  0  0
    4.5981    2.4050    0.0000 C   0  0  0  0  0  0  0  0  0  0  0  0
    9.7942   -3.5950    0.0000 C   0  0  0  0  0  0  0  0  0  0  0  0
    4.5981    6.4050    0.0000 C   0  0  0  0  0  0  0  0  0  0  0  0
    5.5981    5.4050    0.0000 C   0  0  0  0  0  0  0  0  0  0  0  0
    3.5981    5.4050    0.0000 C   0  0  0  0  0  0  0  0  0  0  0  0
    6.3301   -5.5950    0.0000 C   0  0  0  0  0  0  0  0  0  0  0  0
    7.6962   -5.9610    0.0000 C   0  0  0  0  0  0  0  0  0  0  0  0
    6.6962   -4.2290    0.0000 C   0  0  0  0  0  0  0  0  0  0  0  0
    2.0000    1.9050    0.0000 C   0  0  0  0  0  0  0  0  0  0  0  0
    3.3660    1.5390    0.0000 C   0  0  0  0  0  0  0  0  0  0  0  0
    2.3660    3.2710    0.0000 C   0  0  0  0  0  0  0  0  0  0  0  0
   11.5263   -5.5950    0.0000 C   0  0  0  0  0  0  0  0  0  0  0  0
   11.1603   -4.2290    0.0000 C   0  0  0  0  0  0  0  0  0  0  0  0
   10.1603   -5.9610    0.0000 C   0  0  0  0  0  0  0  0  0  0  0  0
    6.3301    2.4050    0.0000 C   0  0  0  0  0  0  0  0  0  0  0  0
    8.9282   -2.0950    0.0000 C   0  0  0  0  0  0  0  0  0  0  0  0
    7.8301    2.2710    0.0000 C   0  0  0  0  0  0  0  0  0  0  0  0
    6.5622   -2.4610    0.0000 C   0  0  0  0  0  0  0  0  0  0  0  0
    8.8301    2.2710    0.0000 C   0  0  0  0  0  0  0  0  0  0  0  0
    6.0622   -3.3270    0.0000 C   0  0  0  0  0  0  0  0  0  0  0  0
    6.0010    4.2150    0.0000 H   0  0  0  0  0  0  0  0  0  0  0  0
    7.5252   -3.2850    0.0000 H   0  0  0  0  0  0  0  0  0  0  0  0
    4.5981    1.7850    0.0000 H   0  0  0  0  0  0  0  0  0  0  0  0
   10.3312   -3.2850    0.0000 H   0  0  0  0  0  0  0  0  0  0  0  0
    5.2181    6.4050    0.0000 H   0  0  0  0  0  0  0  0  0  0  0  0
    4.5981    7.0250    0.0000 H   0  0  0  0  0  0  0  0  0  0  0  0
    3.9781    6.4050    0.0000 H   0  0  0  0  0  0  0  0  0  0  0  0
    5.5981    4.7850    0.0000 H   0  0  0  0  0  0  0  0  0  0  0  0
    6.2181    5.4050    0.0000 H   0  0  0  0  0  0  0  0  0  0  0  0
    5.5981    6.0250    0.0000 H   0  0  0  0  0  0  0  0  0  0  0  0
    3.5981    6.0250    0.0000 H   0  0  0  0  0  0  0  0  0  0  0  0
    2.9781    5.4050    0.0000 H   0  0  0  0  0  0  0  0  0  0  0  0
    3.5981    4.7850    0.0000 H   0  0  0  0  0  0  0  0  0  0  0  0
    6.0201   -5.0581    0.0000 H   0  0  0  0  0  0  0  0  0  0  0  0
    5.7932   -5.9050    0.0000 H   0  0  0  0  0  0  0  0  0  0  0  0
    6.6401   -6.1319    0.0000 H   0  0  0  0  0  0  0  0  0  0  0  0
    7.1592   -6.2710    0.0000 H   0  0  0  0  0  0  0  0  0  0  0  0
    8.0062   -6.4980    0.0000 H   0  0  0  0  0  0  0  0  0  0  0  0
    8.2331   -5.6510    0.0000 H   0  0  0  0  0  0  0  0  0  0  0  0
    7.2331   -3.9190    0.0000 H   0  0  0  0  0  0  0  0  0  0  0  0
    6.3862   -3.6920    0.0000 H   0  0  0  0  0  0  0  0  0  0  0  0
    6.1592   -4.5390    0.0000 H   0  0  0  0  0  0  0  0  0  0  0  0
    1.6900    2.4419    0.0000 H   0  0  0  0  0  0  0  0  0  0  0  0
    1.4631    1.5950    0.0000 H   0  0  0  0  0  0  0  0  0  0  0  0
    2.3100    1.3681    0.0000 H   0  0  0  0  0  0  0  0  0  0  0  0
    2.8291    1.2290    0.0000 H   0  0  0  0  0  0  0  0  0  0  0  0
    3.6760    1.0020    0.0000 H   0  0  0  0  0  0  0  0  0  0  0  0
    3.9030    1.8490    0.0000 H   0  0  0  0  0  0  0  0  0  0  0  0
    2.9030    3.5810    0.0000 H   0  0  0  0  0  0  0  0  0  0  0  0
    2.0560    3.8080    0.0000 H   0  0  0  0  0  0  0  0  0  0  0  0
    1.8291    2.9610    0.0000 H   0  0  0  0  0  0  0  0  0  0  0  0
   11.2163   -6.1319    0.0000 H   0  0  0  0  0  0  0  0  0  0  0  0
   12.0632   -5.9050    0.0000 H   0  0  0  0  0  0  0  0  0  0  0  0
   11.8363   -5.0581    0.0000 H   0  0  0  0  0  0  0  0  0  0  0  0
   11.6972   -4.5390    0.0000 H   0  0  0  0  0  0  0  0  0  0  0  0
   11.4703   -3.6920    0.0000 H   0  0  0  0  0  0  0  0  0  0  0  0
   10.6233   -3.9190    0.0000 H   0  0  0  0  0  0  0  0  0  0  0  0
    9.6233   -5.6510    0.0000 H   0  0  0  0  0  0  0  0  0  0  0  0
    9.8503   -6.4980    0.0000 H   0  0  0  0  0  0  0  0  0  0  0  0
   10.6972   -6.2710    0.0000 H   0  0  0  0  0  0  0  0  0  0  0  0
    6.9407    2.2973    0.0000 H   0  0  0  0  0  0  0  0  0  0  0  0
    6.5422    2.9876    0.0000 H   0  0  0  0  0  0  0  0  0  0  0  0
    9.5388   -2.2027    0.0000 H   0  0  0  0  0  0  0  0  0  0  0  0
    9.1403   -1.5124    0.0000 H   0  0  0  0  0  0  0  0  0  0  0  0
    2.8660    5.0250    0.0000 H   0  0  0  0  0  0  0  0  0  0  0  0
    9.4651   -6.4050    0.0000 H   0  0  0  0  0  0  0  0  0  0  0  0
    7.9378    2.8816    0.0000 H   0  0  0  0  0  0  0  0  0  0  0  0
    7.2475    2.4831    0.0000 H   0  0  0  0  0  0  0  0  0  0  0  0
    6.6698   -1.8504    0.0000 H   0  0  0  0  0  0  0  0  0  0  0  0
    5.9796   -2.2490    0.0000 H   0  0  0  0  0  0  0  0  0  0  0  0
    8.8301    1.6510    0.0000 H   0  0  0  0  0  0  0  0  0  0  0  0
    9.4501    2.2710    0.0000 H   0  0  0  0  0  0  0  0  0  0  0  0
    8.8301    2.8910    0.0000 H   0  0  0  0  0  0  0  0  0  0  0  0
    5.5252   -3.0170    0.0000 H   0  0  0  0  0  0  0  0  0  0  0  0
    5.7522   -3.8640    0.0000 H   0  0  0  0  0  0  0  0  0  0  0  0
    6.5991   -3.6370    0.0000 H   0  0  0  0  0  0  0  0  0  0  0  0
  2  6  1  0  0  0  0
  2  8  1  0  0  0  0
  2 10  2  0  0  0  0
  2 40  1  0  0  0  0
  3  7  1  0  0  0  0
  3  9  1  0  0  0  0
  3 11  2  0  0  0  0
  3 41  1  0  0  0  0
  4 20  1  0  0  0  0
  4 90  1  0  0  0  0
  5 21  1  0  0  0  0
  5 91  1  0  0  0  0
  6 42  1  0  0  0  0
  7 43  1  0  0  0  0
 12 16  1  0  0  0  0
 12 28  1  0  0  0  0
 12 29  1  0  0  0  0
 12 30  1  0  0  0  0
 13 17  1  0  0  0  0
 13 31  1  0  0  0  0
 13 32  1  0  0  0  0
 13 33  1  0  0  0  0
 14 18  1  0  0  0  0
 14 34  1  0  0  0  0
 14 35  1  0  0  0  0
 14 36  1  0  0  0  0
 15 19  1  0  0  0  0
 15 37  1  0  0  0  0
 15 38  1  0  0  0  0
 15 39  1  0  0  0  0
 16 20  2  0  0  0  0
 16 24  1  0  0  0  0
 17 21  2  0  0  0  0
 17 25  1  0  0  0  0
 18 20  1  0  0  0  0
 18 26  2  0  0  0  0
 19 21  1  0  0  0  0
 19 27  2  0  0  0  0
 22 24  2  0  0  0  0
 22 26  1  0  0  0  0
 22 40  1  0  0  0  0
 23 25  2  0  0  0  0
 23 27  1  0  0  0  0
 23 41  1  0  0  0  0
 24 46  1  0  0  0  0
 25 47  1  0  0  0  0
 26 48  1  0  0  0  0
 27 49  1  0  0  0  0
 28 50  1  0  0  0  0
 28 51  1  0  0  0  0
 28 52  1  0  0  0  0
 29 53  1  0  0  0  0
 29 54  1  0  0  0  0
 29 55  1  0  0  0  0
 30 56  1  0  0  0  0
 30 57  1  0  0  0  0
 30 58  1  0  0  0  0
 31 59  1  0  0  0  0
 31 60  1  0  0  0  0
 31 61  1  0  0  0  0
 32 62  1  0  0  0  0
 32 63  1  0  0  0  0
 32 64  1  0  0  0  0
 33 65  1  0  0  0  0
 33 66  1  0  0  0  0
 33 67  1  0  0  0  0
 34 68  1  0  0  0  0
 34 69  1  0  0  0  0
 34 70  1  0  0  0  0
 35 71  1  0  0  0  0
 35 72  1  0  0  0  0
 35 73  1  0  0  0  0
 36 74  1  0  0  0  0
 36 75  1  0  0  0  0
 36 76  1  0  0  0  0
 37 77  1  0  0  0  0
 37 78  1  0  0  0  0
 37 79  1  0  0  0  0
 38 80  1  0  0  0  0
 38 81  1  0  0  0  0
 38 82  1  0  0  0  0
 39 83  1  0  0  0  0
 39 84  1  0  0  0  0
 39 85  1  0  0  0  0
 40 86  1  0  0  0  0
 40 87  1  0  0  0  0
 41 88  1  0  0  0  0
 41 89  1  0  0  0  0
 42 44  1  0  0  0  0
 42 92  1  0  0  0  0
 42 93  1  0  0  0  0
 43 45  1  0  0  0  0
 43 94  1  0  0  0  0
 43 95  1  0  0  0  0
 44 96  1  0  0  0  0
 44 97  1  0  0  0  0
 44 98  1  0  0  0  0
 45 99  1  0  0  0  0
 45100  1  0  0  0  0
 45101  1  0  0  0  0
M  CHG  3   1   2   8  -1   9  -1
M  END
> <PUBCHEM_COMPOUND_CID>
103255

> <PUBCHEM_COMPOUND_CANONICALIZED>
1

> <PUBCHEM_CACTVS_COMPLEXITY>
376

> <PUBCHEM_CACTVS_HBOND_ACCEPTOR>
8

> <PUBCHEM_CACTVS_HBOND_DONOR>
2

> <PUBCHEM_CACTVS_ROTATABLE_BOND>
12

> <PUBCHEM_CACTVS_SUBSKEYS>
AAADcfB8PAMAAAgAAAAAAAAAAAAAAAAAAAAwYAAAAAAAAAABQAAAGggACCAADgSomAIyBoAAAxCAQiBCAIACAAAgIAAAiAAECIgIJiKCERKAcAAkwBEImAeAwOAPoAACAAAIAABAAAQAABAAAAAAAAAAAA==

> <PUBCHEM_IUPAC_OPENEYE_NAME>
calcium;(3,5-ditert-butyl-4-hydroxy-phenyl)methyl-ethoxy-phosphinate

> <PUBCHEM_IUPAC_CAS_NAME>
calcium;(3,5-ditert-butyl-4-hydroxyphenyl)methyl-ethoxyphosphinate

> <PUBCHEM_IUPAC_NAME_MARKUP>
calcium;(3,5-di<I>tert</I>-butyl-4-hydroxyphenyl)methyl-ethoxyphosphinate

> <PUBCHEM_IUPAC_NAME>
calcium;(3,5-ditert-butyl-4-hydroxyphenyl)methyl-ethoxyphosphinate

> <PUBCHEM_IUPAC_SYSTEMATIC_NAME>
calcium;(3,5-ditert-butyl-4-oxidanyl-phenyl)methyl-ethoxy-phosphinate

> <PUBCHEM_IUPAC_TRADITIONAL_NAME>
calcium;(3,5-ditert-butyl-4-hydroxy-benzyl)-ethoxy-phosphinate

> <PUBCHEM_IUPAC_INCHI>
InChI=1S/2C17H29O4P.Ca/c2*1-8-21-22(19,20)11-12-9-13(16(2,3)4)15(18)14(10-12)17(5,6)7;/h2*9-10,18H,8,11H2,1-7H3,(H,19,20);/q;;+2/p-2

> <PUBCHEM_IUPAC_INCHIKEY>
SJEZDMHBMZPMME-UHFFFAOYSA-L

> <PUBCHEM_EXACT_MASS>
694.3076336

> <PUBCHEM_MOLECULAR_FORMULA>
C34H56CaO8P2

> <PUBCHEM_MOLECULAR_WEIGHT>
694.8

> <PUBCHEM_SMILES>
CCOP(=O)(CC1=CC(=C(C(=C1)C(C)(C)C)O)C(C)(C)C)[O-].CCOP(=O)(CC1=CC(=C(C(=C1)C(C)(C)C)O)C(C)(C)C)[O-].[Ca+2]

> <PUBCHEM_OPENEYE_CAN_SMILES>
CCOP(=O)(CC1=CC(=C(C(=C1)C(C)(C)C)O)C(C)(C)C)[O-].CCOP(=O)(CC1=CC(=C(C(=C1)C(C)(C)C)O)C(C)(C)C)[O-].[Ca+2]

> <PUBCHEM_OPENEYE_ISO_SMILES>
CCOP(=O)(CC1=CC(=C(C(=C1)C(C)(C)C)O)C(C)(C)C)[O-].CCOP(=O)(CC1=CC(=C(C(=C1)C(C)(C)C)O)C(C)(C)C)[O-].[Ca+2]

> <PUBCHEM_CACTVS_TPSA>
139

> <PUBCHEM_MONOISOTOPIC_WEIGHT>
694.3076336

> <PUBCHEM_TOTAL_CHARGE>
0

> <PUBCHEM_HEAVY_ATOM_COUNT>
45

> <PUBCHEM_ATOM_DEF_STEREO_COUNT>
0

> <PUBCHEM_ATOM_UDEF_STEREO_COUNT>
0

> <PUBCHEM_BOND_DEF_STEREO_COUNT>
0

> <PUBCHEM_BOND_UDEF_STEREO_COUNT>
0

> <PUBCHEM_ISOTOPIC_ATOM_COUNT>
0

> <PUBCHEM_COMPONENT_COUNT>
3

> <PUBCHEM_CACTVS_TAUTO_COUNT>
-1

> <PUBCHEM_COORDINATE_TYPE>
1
5
255

> <PUBCHEM_BONDANNOTATIONS>
16  20  8
16  24  8
17  21  8
17  25  8
18  20  8
18  26  8
19  21  8
19  27  8
22  24  8
22  26  8
23  25  8
23  27  8

$$$$
