104064
  -OEChem-04042505422D

 62 64  0     0  0  0  0  0  0999 V2000
    4.6783   -2.7058    0.0000 N   0  0  0  0  0  0  0  0  0  0  0  0
   12.2619   -0.1690    0.0000 C   0  0  0  0  0  0  0  0  0  0  0  0
   12.7619    0.6970    0.0000 C   0  0  0  0  0  0  0  0  0  0  0  0
   11.2619   -0.1690    0.0000 C   0  0  0  0  0  0  0  0  0  0  0  0
   13.7619    0.6970    0.0000 C   0  0  0  0  0  0  0  0  0  0  0  0
   10.7619   -1.0350    0.0000 C   0  0  0  0  0  0  0  0  0  0  0  0
   14.2619    1.5630    0.0000 C   0  0  0  0  0  0  0  0  0  0  0  0
    9.7619   -1.0350    0.0000 C   0  0  0  0  0  0  0  0  0  0  0  0
   15.2619    1.5630    0.0000 C   0  0  0  0  0  0  0  0  0  0  0  0
    9.2619   -1.9010    0.0000 C   0  0  0  0  0  0  0  0  0  0  0  0
   15.7619    2.4291    0.0000 C   0  0  0  0  0  0  0  0  0  0  0  0
    8.2619   -1.9010    0.0000 C   0  0  0  0  0  0  0  0  0  0  0  0
   16.7619    2.4291    0.0000 C   0  0  0  0  0  0  0  0  0  0  0  0
    7.7619   -2.7671    0.0000 C   0  0  0  0  0  0  0  0  0  0  0  0
    7.7619   -1.0350    0.0000 C   0  0  0  0  0  0  0  0  0  0  0  0
    6.2619   -1.9010    0.0000 C   0  0  0  0  0  0  0  0  0  0  0  0
   17.2619    3.2951    0.0000 C   0  0  0  0  0  0  0  0  0  0  0  0
    5.2619   -1.9010    0.0000 C   0  0  0  0  0  0  0  0  0  0  0  0
    6.7619   -2.7671    0.0000 C   0  0  0  0  0  0  0  0  0  0  0  0
    6.7619   -1.0350    0.0000 C   0  0  0  0  0  0  0  0  0  0  0  0
    3.7320   -2.4010    0.0000 C   0  0  0  0  0  0  0  0  0  0  0  0
    3.7320   -1.4010    0.0000 C   0  0  0  0  0  0  0  0  0  0  0  0
    4.6783   -1.0963    0.0000 C   0  0  0  0  0  0  0  0  0  0  0  0
    2.8660   -2.9010    0.0000 C   0  0  0  0  0  0  0  0  0  0  0  0
    2.8660   -0.9010    0.0000 C   0  0  0  0  0  0  0  0  0  0  0  0
    2.0000   -2.4010    0.0000 C   0  0  0  0  0  0  0  0  0  0  0  0
    2.0000   -1.4010    0.0000 C   0  0  0  0  0  0  0  0  0  0  0  0
   12.1542   -0.7796    0.0000 H   0  0  0  0  0  0  0  0  0  0  0  0
   12.8445   -0.3810    0.0000 H   0  0  0  0  0  0  0  0  0  0  0  0
   12.8695    1.3076    0.0000 H   0  0  0  0  0  0  0  0  0  0  0  0
   12.1793    0.9091    0.0000 H   0  0  0  0  0  0  0  0  0  0  0  0
   11.3695    0.4416    0.0000 H   0  0  0  0  0  0  0  0  0  0  0  0
   10.6793    0.0431    0.0000 H   0  0  0  0  0  0  0  0  0  0  0  0
   13.6542    0.0864    0.0000 H   0  0  0  0  0  0  0  0  0  0  0  0
   14.3445    0.4850    0.0000 H   0  0  0  0  0  0  0  0  0  0  0  0
   10.6542   -1.6456    0.0000 H   0  0  0  0  0  0  0  0  0  0  0  0
   11.3445   -1.2471    0.0000 H   0  0  0  0  0  0  0  0  0  0  0  0
   14.3695    2.1736    0.0000 H   0  0  0  0  0  0  0  0  0  0  0  0
   13.6793    1.7751    0.0000 H   0  0  0  0  0  0  0  0  0  0  0  0
    9.8695   -0.4244    0.0000 H   0  0  0  0  0  0  0  0  0  0  0  0
    9.1793   -0.8230    0.0000 H   0  0  0  0  0  0  0  0  0  0  0  0
   15.1542    0.9525    0.0000 H   0  0  0  0  0  0  0  0  0  0  0  0
   15.8445    1.3510    0.0000 H   0  0  0  0  0  0  0  0  0  0  0  0
    9.1542   -2.5116    0.0000 H   0  0  0  0  0  0  0  0  0  0  0  0
    9.8445   -2.1131    0.0000 H   0  0  0  0  0  0  0  0  0  0  0  0
   15.8695    3.0397    0.0000 H   0  0  0  0  0  0  0  0  0  0  0  0
   15.1793    2.6411    0.0000 H   0  0  0  0  0  0  0  0  0  0  0  0
   16.6542    1.8185    0.0000 H   0  0  0  0  0  0  0  0  0  0  0  0
   17.3445    2.2170    0.0000 H   0  0  0  0  0  0  0  0  0  0  0  0
    8.0719   -3.3040    0.0000 H   0  0  0  0  0  0  0  0  0  0  0  0
    8.0719   -0.4981    0.0000 H   0  0  0  0  0  0  0  0  0  0  0  0
   17.7988    2.9851    0.0000 H   0  0  0  0  0  0  0  0  0  0  0  0
   17.5719    3.8320    0.0000 H   0  0  0  0  0  0  0  0  0  0  0  0
   16.7249    3.6051    0.0000 H   0  0  0  0  0  0  0  0  0  0  0  0
    6.4519   -3.3040    0.0000 H   0  0  0  0  0  0  0  0  0  0  0  0
    6.4519   -0.4981    0.0000 H   0  0  0  0  0  0  0  0  0  0  0  0
    4.8709   -3.2951    0.0000 H   0  0  0  0  0  0  0  0  0  0  0  0
    4.8709   -0.5070    0.0000 H   0  0  0  0  0  0  0  0  0  0  0  0
    2.8660   -3.5210    0.0000 H   0  0  0  0  0  0  0  0  0  0  0  0
    2.8660   -0.2810    0.0000 H   0  0  0  0  0  0  0  0  0  0  0  0
    1.4631   -2.7110    0.0000 H   0  0  0  0  0  0  0  0  0  0  0  0
    1.4631   -1.0910    0.0000 H   0  0  0  0  0  0  0  0  0  0  0  0
  1 18  1  0  0  0  0
  1 21  1  0  0  0  0
  1 57  1  0  0  0  0
  2  3  1  0  0  0  0
  2  4  1  0  0  0  0
  2 28  1  0  0  0  0
  2 29  1  0  0  0  0
  3  5  1  0  0  0  0
  3 30  1  0  0  0  0
  3 31  1  0  0  0  0
  4  6  1  0  0  0  0
  4 32  1  0  0  0  0
  4 33  1  0  0  0  0
  5  7  1  0  0  0  0
  5 34  1  0  0  0  0
  5 35  1  0  0  0  0
  6  8  1  0  0  0  0
  6 36  1  0  0  0  0
  6 37  1  0  0  0  0
  7  9  1  0  0  0  0
  7 38  1  0  0  0  0
  7 39  1  0  0  0  0
  8 10  1  0  0  0  0
  8 40  1  0  0  0  0
  8 41  1  0  0  0  0
  9 11  1  0  0  0  0
  9 42  1  0  0  0  0
  9 43  1  0  0  0  0
 10 12  1  0  0  0  0
 10 44  1  0  0  0  0
 10 45  1  0  0  0  0
 11 13  1  0  0  0  0
 11 46  1  0  0  0  0
 11 47  1  0  0  0  0
 12 14  2  0  0  0  0
 12 15  1  0  0  0  0
 13 17  1  0  0  0  0
 13 48  1  0  0  0  0
 13 49  1  0  0  0  0
 14 19  1  0  0  0  0
 14 50  1  0  0  0  0
 15 20  2  0  0  0  0
 15 51  1  0  0  0  0
 16 18  1  0  0  0  0
 16 19  2  0  0  0  0
 16 20  1  0  0  0  0
 17 52  1  0  0  0  0
 17 53  1  0  0  0  0
 17 54  1  0  0  0  0
 18 23  2  0  0  0  0
 19 55  1  0  0  0  0
 20 56  1  0  0  0  0
 21 22  1  0  0  0  0
 21 24  2  0  0  0  0
 22 23  1  0  0  0  0
 22 25  2  0  0  0  0
 23 58  1  0  0  0  0
 24 26  1  0  0  0  0
 24 59  1  0  0  0  0
 25 27  1  0  0  0  0
 25 60  1  0  0  0  0
 26 27  2  0  0  0  0
 26 61  1  0  0  0  0
 27 62  1  0  0  0  0
M  END
> <PUBCHEM_COMPOUND_CID>
104064

> <PUBCHEM_COMPOUND_CANONICALIZED>
1

> <PUBCHEM_CACTVS_COMPLEXITY>
370

> <PUBCHEM_CACTVS_HBOND_ACCEPTOR>
0

> <PUBCHEM_CACTVS_HBOND_DONOR>
1

> <PUBCHEM_CACTVS_ROTATABLE_BOND>
12

> <PUBCHEM_CACTVS_SUBSKEYS>
AAADcfB6AAAAAAAAAAAAAAAAAAAAAWAAAAAwYAAAAAAAAFgB9AAAHAAQAAAADAiBHgAywPLJkACgAyRiRACCgCAhAiAImSAwZJgIIOLAkZGEIAhgkADIyAcQgMAOQAAAAAACAACAAAAAAAQAAAAAAAAAAA==

> <PUBCHEM_IUPAC_OPENEYE_NAME>
2-(4-dodecylphenyl)-1H-indole

> <PUBCHEM_IUPAC_CAS_NAME>
2-(4-dodecylphenyl)-1H-indole

> <PUBCHEM_IUPAC_NAME_MARKUP>
2-(4-dodecylphenyl)-1<I>H</I>-indole

> <PUBCHEM_IUPAC_NAME>
2-(4-dodecylphenyl)-1H-indole

> <PUBCHEM_IUPAC_SYSTEMATIC_NAME>
2-(4-dodecylphenyl)-1H-indole

> <PUBCHEM_IUPAC_TRADITIONAL_NAME>
2-(4-laurylphenyl)-1H-indole

> <PUBCHEM_IUPAC_INCHI>
InChI=1S/C26H35N/c1-2-3-4-5-6-7-8-9-10-11-14-22-17-19-23(20-18-22)26-21-24-15-12-13-16-25(24)27-26/h12-13,15-21,27H,2-11,14H2,1H3

> <PUBCHEM_IUPAC_INCHIKEY>
BTFUHFBRQZAJRT-UHFFFAOYSA-N

> <PUBCHEM_XLOGP3>
10

> <PUBCHEM_EXACT_MASS>
361.276950121

> <PUBCHEM_MOLECULAR_FORMULA>
C26H35N

> <PUBCHEM_MOLECULAR_WEIGHT>
361.6

> <PUBCHEM_SMILES>
CCCCCCCCCCCCC1=CC=C(C=C1)C2=CC3=CC=CC=C3N2

> <PUBCHEM_OPENEYE_CAN_SMILES>
CCCCCCCCCCCCC1=CC=C(C=C1)C2=CC3=CC=CC=C3N2

> <PUBCHEM_OPENEYE_ISO_SMILES>
CCCCCCCCCCCCC1=CC=C(C=C1)C2=CC3=CC=CC=C3N2

> <PUBCHEM_CACTVS_TPSA>
15.8

> <PUBCHEM_MONOISOTOPIC_WEIGHT>
361.276950121

> <PUBCHEM_TOTAL_CHARGE>
0

> <PUBCHEM_HEAVY_ATOM_COUNT>
27

> <PUBCHEM_ATOM_DEF_STEREO_COUNT>
0

> <PUBCHEM_ATOM_UDEF_STEREO_COUNT>
0

> <PUBCHEM_BOND_DEF_STEREO_COUNT>
0

> <PUBCHEM_BOND_UDEF_STEREO_COUNT>
0

> <PUBCHEM_ISOTOPIC_ATOM_COUNT>
0

> <PUBCHEM_COMPONENT_COUNT>
1

> <PUBCHEM_CACTVS_TAUTO_COUNT>
-1

> <PUBCHEM_COORDINATE_TYPE>
1
5
255

> <PUBCHEM_BONDANNOTATIONS>
1  18  8
1  21  8
12  14  8
12  15  8
14  19  8
15  20  8
16  19  8
16  20  8
18  23  8
21  22  8
21  24  8
22  23  8
22  25  8
24  26  8
25  27  8
26  27  8

$$$$
