104265
  -OEChem-04042506012D

 27 25  0     0  0  0  0  0  0999 V2000
    3.1350    0.8660    0.0000 P   0  0  0  0  0  0  0  0  0  0  0  0
    3.1350    5.7690    0.0000 O   0  0  0  0  0  0  0  0  0  0  0  0
    0.5369    5.2690    0.0000 O   0  0  0  0  0  0  0  0  0  0  0  0
    4.0010    4.2690    0.0000 O   0  0  0  0  0  0  0  0  0  0  0  0
    4.0010    1.3660    0.0000 O   0  0  0  0  0  0  0  0  0  0  0  0
    2.2690    0.3660    0.0000 O   0  0  0  0  0  0  0  0  0  0  0  0
    2.6350    1.7320    0.0000 O   0  0  0  0  0  0  0  0  0  0  0  0
    3.6350    0.0000    0.0000 O   0  0  0  0  0  0  0  0  0  0  0  0
    2.2690    5.2690    0.0000 C   0  0  0  0  0  0  0  0  0  0  0  0
    1.4030    5.7690    0.0000 C   0  0  0  0  0  0  0  0  0  0  0  0
    4.8671    5.7690    0.0000 C   0  0  0  0  0  0  0  0  0  0  0  0
    4.0010    5.2690    0.0000 C   0  0  0  0  0  0  0  0  0  0  0  0
    5.7331    5.2690    0.0000 C   0  0  0  0  0  0  0  0  0  0  0  0
    4.8671    6.7690    0.0000 C   0  0  0  0  0  0  0  0  0  0  0  0
    1.8705    4.7940    0.0000 H   0  0  0  0  0  0  0  0  0  0  0  0
    2.6675    4.7940    0.0000 H   0  0  0  0  0  0  0  0  0  0  0  0
    1.8015    6.2439    0.0000 H   0  0  0  0  0  0  0  0  0  0  0  0
    1.0044    6.2439    0.0000 H   0  0  0  0  0  0  0  0  0  0  0  0
    5.4231    4.7320    0.0000 H   0  0  0  0  0  0  0  0  0  0  0  0
    6.2700    4.9590    0.0000 H   0  0  0  0  0  0  0  0  0  0  0  0
    6.0431    5.8059    0.0000 H   0  0  0  0  0  0  0  0  0  0  0  0
    5.4040    7.0790    0.0000 H   0  0  0  0  0  0  0  0  0  0  0  0
    4.3301    7.0790    0.0000 H   0  0  0  0  0  0  0  0  0  0  0  0
    0.0000    5.5790    0.0000 H   0  0  0  0  0  0  0  0  0  0  0  0
    4.5380    1.0560    0.0000 H   0  0  0  0  0  0  0  0  0  0  0  0
    1.7320    0.6760    0.0000 H   0  0  0  0  0  0  0  0  0  0  0  0
    2.9450    2.2690    0.0000 H   0  0  0  0  0  0  0  0  0  0  0  0
  1  5  1  0  0  0  0
  1  6  1  0  0  0  0
  1  7  1  0  0  0  0
  1  8  2  0  0  0  0
  2  9  1  0  0  0  0
  2 12  1  0  0  0  0
  3 10  1  0  0  0  0
  3 24  1  0  0  0  0
  4 12  2  0  0  0  0
  5 25  1  0  0  0  0
  6 26  1  0  0  0  0
  7 27  1  0  0  0  0
  9 10  1  0  0  0  0
  9 15  1  0  0  0  0
  9 16  1  0  0  0  0
 10 17  1  0  0  0  0
 10 18  1  0  0  0  0
 11 12  1  0  0  0  0
 11 13  1  0  0  0  0
 11 14  2  0  0  0  0
 13 19  1  0  0  0  0
 13 20  1  0  0  0  0
 13 21  1  0  0  0  0
 14 22  1  0  0  0  0
 14 23  1  0  0  0  0
M  END
> <PUBCHEM_COMPOUND_CID>
104265

> <PUBCHEM_COMPOUND_CANONICALIZED>
1

> <PUBCHEM_CACTVS_COMPLEXITY>
167

> <PUBCHEM_CACTVS_HBOND_ACCEPTOR>
7

> <PUBCHEM_CACTVS_HBOND_DONOR>
4

> <PUBCHEM_CACTVS_ROTATABLE_BOND>
4

> <PUBCHEM_CACTVS_SUBSKEYS>
AAADccBgOAIAAAAAAAAAAAAAAAAAAAAAAAAAAAAAAAAAAAAAAAAAGgAACCAADACggAICCAAABhCIQgDSCIAAAAAAAAAAAAEAAEABFAAAIQACAAAAAAADIIAAAAAAAAAAAAAAAAAAAAAAAAAAAAAAAAAAAA==

> <PUBCHEM_IUPAC_OPENEYE_NAME>
2-hydroxyethyl 2-methylprop-2-enoate;phosphoric acid

> <PUBCHEM_IUPAC_CAS_NAME>
2-methyl-2-propenoic acid 2-hydroxyethyl ester;phosphoric acid

> <PUBCHEM_IUPAC_NAME_MARKUP>
2-hydroxyethyl 2-methylprop-2-enoate;phosphoric acid

> <PUBCHEM_IUPAC_NAME>
2-hydroxyethyl 2-methylprop-2-enoate;phosphoric acid

> <PUBCHEM_IUPAC_SYSTEMATIC_NAME>
2-hydroxyethyl 2-methylprop-2-enoate;phosphoric acid

> <PUBCHEM_IUPAC_TRADITIONAL_NAME>
2-methylacrylic acid 2-hydroxyethyl ester;phosphoric acid

> <PUBCHEM_IUPAC_INCHI>
InChI=1S/C6H10O3.H3O4P/c1-5(2)6(8)9-4-3-7;1-5(2,3)4/h7H,1,3-4H2,2H3;(H3,1,2,3,4)

> <PUBCHEM_IUPAC_INCHIKEY>
POLZHVHESHDZRD-UHFFFAOYSA-N

> <PUBCHEM_EXACT_MASS>
228.03988975

> <PUBCHEM_MOLECULAR_FORMULA>
C6H13O7P

> <PUBCHEM_MOLECULAR_WEIGHT>
228.14

> <PUBCHEM_SMILES>
CC(=C)C(=O)OCCO.OP(=O)(O)O

> <PUBCHEM_OPENEYE_CAN_SMILES>
CC(=C)C(=O)OCCO.OP(=O)(O)O

> <PUBCHEM_OPENEYE_ISO_SMILES>
CC(=C)C(=O)OCCO.OP(=O)(O)O

> <PUBCHEM_CACTVS_TPSA>
124

> <PUBCHEM_MONOISOTOPIC_WEIGHT>
228.03988975

> <PUBCHEM_TOTAL_CHARGE>
0

> <PUBCHEM_HEAVY_ATOM_COUNT>
14

> <PUBCHEM_ATOM_DEF_STEREO_COUNT>
0

> <PUBCHEM_ATOM_UDEF_STEREO_COUNT>
0

> <PUBCHEM_BOND_DEF_STEREO_COUNT>
0

> <PUBCHEM_BOND_UDEF_STEREO_COUNT>
0

> <PUBCHEM_ISOTOPIC_ATOM_COUNT>
0

> <PUBCHEM_COMPONENT_COUNT>
2

> <PUBCHEM_CACTVS_TAUTO_COUNT>
-1

> <PUBCHEM_COORDINATE_TYPE>
1
5
255

$$$$
