10483688
  -OEChem-04042512212D

 36 35  0     1  0  0  0  0  0999 V2000
    6.4640   -0.9821    0.0000 F   0  0  0  0  0  0  0  0  0  0  0  0
    6.3301    1.2500    0.0000 F   0  0  0  0  0  0  0  0  0  0  0  0
    7.3301   -0.4821    0.0000 F   0  0  0  0  0  0  0  0  0  0  0  0
    8.0621   -0.4821    0.0000 F   0  0  0  0  0  0  0  0  0  0  0  0
    4.9640   -1.8481    0.0000 F   0  0  0  0  0  0  0  0  0  0  0  0
    4.5980   -0.4821    0.0000 F   0  0  0  0  0  0  0  0  0  0  0  0
    5.9641   -1.8481    0.0000 F   0  0  0  0  0  0  0  0  0  0  0  0
    5.0980    2.1160    0.0000 F   0  0  0  0  0  0  0  0  0  0  0  0
    4.0980    0.3840    0.0000 F   0  0  0  0  0  0  0  0  0  0  0  0
   10.3678    0.2260    0.0000 F   0  0  0  0  0  0  0  0  0  0  0  0
    8.9282   -0.9821    0.0000 F   0  0  0  0  0  0  0  0  0  0  0  0
    4.2320    2.6160    0.0000 F   0  0  0  0  0  0  0  0  0  0  0  0
    3.2320    0.8840    0.0000 F   0  0  0  0  0  0  0  0  0  0  0  0
    9.5621    2.1160    0.0000 F   0  0  0  0  0  0  0  0  0  0  0  0
    8.1961    1.7500    0.0000 F   0  0  0  0  0  0  0  0  0  0  0  0
   10.0469    1.4236    0.0000 F   0  0  0  0  0  0  0  0  0  0  0  0
    2.0000    2.7501    0.0000 F   0  0  0  0  0  0  0  0  0  0  0  0
    3.3660    3.1160    0.0000 F   0  0  0  0  0  0  0  0  0  0  0  0
    2.3660    1.3840    0.0000 F   0  0  0  0  0  0  0  0  0  0  0  0
    9.4282   -2.1160    0.0000 F   0  0  0  0  0  0  0  0  0  0  0  0
   11.1602   -3.1160    0.0000 F   0  0  0  0  0  0  0  0  0  0  0  0
   12.0262   -1.6160    0.0000 F   0  0  0  0  0  0  0  0  0  0  0  0
    7.6961    0.8840    0.0000 O   0  0  0  0  0  0  0  0  0  0  0  0
    5.4640    0.7500    0.0000 O   0  0  0  0  0  0  0  0  0  0  0  0
   10.2942   -0.6160    0.0000 O   0  0  0  0  0  0  0  0  0  0  0  0
    5.9640   -0.1160    0.0000 C   0  0  3  0  0  0  0  0  0  0  0  0
    6.8301    0.3840    0.0000 C   0  0  0  0  0  0  0  0  0  0  0  0
    8.5621    0.3840    0.0000 C   0  0  3  0  0  0  0  0  0  0  0  0
    5.4640   -0.9820    0.0000 C   0  0  0  0  0  0  0  0  0  0  0  0
    4.5981    1.2501    0.0000 C   0  0  0  0  0  0  0  0  0  0  0  0
    9.4282   -0.1160    0.0000 C   0  0  0  0  0  0  0  0  0  0  0  0
    3.7320    1.7501    0.0000 C   0  0  0  0  0  0  0  0  0  0  0  0
    9.0621    1.2500    0.0000 C   0  0  0  0  0  0  0  0  0  0  0  0
    2.8660    2.2501    0.0000 C   0  0  0  0  0  0  0  0  0  0  0  0
   10.2942   -1.6160    0.0000 C   0  0  0  0  0  0  0  0  0  0  0  0
   11.1602   -2.1160    0.0000 C   0  0  0  0  0  0  0  0  0  0  0  0
  1 26  1  0  0  0  0
  2 27  1  0  0  0  0
  3 27  1  0  0  0  0
  4 28  1  0  0  0  0
  5 29  1  0  0  0  0
  6 29  1  0  0  0  0
  7 29  1  0  0  0  0
  8 30  1  0  0  0  0
  9 30  1  0  0  0  0
 10 31  1  0  0  0  0
 11 31  1  0  0  0  0
 12 32  1  0  0  0  0
 13 32  1  0  0  0  0
 14 33  1  0  0  0  0
 15 33  1  0  0  0  0
 16 33  1  0  0  0  0
 17 34  1  0  0  0  0
 18 34  1  0  0  0  0
 19 34  1  0  0  0  0
 20 35  1  0  0  0  0
 21 36  1  0  0  0  0
 22 36  1  0  0  0  0
 23 27  1  0  0  0  0
 23 28  1  0  0  0  0
 24 26  1  0  0  0  0
 24 30  1  0  0  0  0
 25 31  1  0  0  0  0
 25 35  1  0  0  0  0
 26 27  1  0  0  0  0
 26 29  1  0  0  0  0
 28 31  1  0  0  0  0
 28 33  1  0  0  0  0
 30 32  1  0  0  0  0
 32 34  1  0  0  0  0
 35 36  2  0  0  0  0
M  END
> <PUBCHEM_COMPOUND_CID>
10483688

> <PUBCHEM_COMPOUND_CANONICALIZED>
1

> <PUBCHEM_CACTVS_COMPLEXITY>
817

> <PUBCHEM_CACTVS_HBOND_ACCEPTOR>
25

> <PUBCHEM_CACTVS_HBOND_DONOR>
0

> <PUBCHEM_CACTVS_ROTATABLE_BOND>
9

> <PUBCHEM_CACTVS_SUBSKEYS>
AAADcQBwMcAAAAAAAAAAAAAAAAAAAAAAAAAAAAAAAAAAAAAAAAAACwAAAAAACAQAgBAAAAAABACAAAAAAAAACAAAAAAAAAAAAAABAAAAAAACAAAAAAACAAAAAAAAAAAAAAAAAAAAAAAAAAAAAAAAAAAAAA==

> <PUBCHEM_IUPAC_OPENEYE_NAME>
1,1,1,2,3,3-hexafluoro-2-[1,1,2,3,3,3-hexafluoro-2-(1,1,2,2,3,3,3-heptafluoropropoxy)propoxy]-3-(1,2,2-trifluorovinyloxy)propane

> <PUBCHEM_IUPAC_CAS_NAME>
1,1,1,2,3,3-hexafluoro-2-[1,1,2,3,3,3-hexafluoro-2-(1,1,2,2,3,3,3-heptafluoropropoxy)propoxy]-3-(1,2,2-trifluoroethenoxy)propane

> <PUBCHEM_IUPAC_NAME_MARKUP>
1,1,1,2,3,3-hexafluoro-2-[1,1,2,3,3,3-hexafluoro-2-(1,1,2,2,3,3,3-heptafluoropropoxy)propoxy]-3-(1,2,2-trifluoroethenoxy)propane

> <PUBCHEM_IUPAC_NAME>
1,1,1,2,3,3-hexafluoro-2-[1,1,2,3,3,3-hexafluoro-2-(1,1,2,2,3,3,3-heptafluoropropoxy)propoxy]-3-(1,2,2-trifluoroethenoxy)propane

> <PUBCHEM_IUPAC_SYSTEMATIC_NAME>
1,1,1,2,3,3-hexakis(fluoranyl)-2-[1,1,2,3,3,3-hexakis(fluoranyl)-2-[1,1,2,2,3,3,3-heptakis(fluoranyl)propoxy]propoxy]-3-[1,2,2-tris(fluoranyl)ethenoxy]propane

> <PUBCHEM_IUPAC_TRADITIONAL_NAME>
1,1,1,2,3,3-hexafluoro-2-[1,1,2,3,3,3-hexafluoro-2-(1,1,2,2,3,3,3-heptafluoropropoxy)propoxy]-3-(1,2,2-trifluorovinyloxy)propane

> <PUBCHEM_IUPAC_INCHI>
InChI=1S/C11F22O3/c12-1(13)2(14)34-10(30,31)4(17,7(22,23)24)36-11(32,33)5(18,8(25,26)27)35-9(28,29)3(15,16)6(19,20)21

> <PUBCHEM_IUPAC_INCHIKEY>
GKKVHBTVWDBEIN-UHFFFAOYSA-N

> <PUBCHEM_XLOGP3_AA>
7.9

> <PUBCHEM_EXACT_MASS>
597.9496134

> <PUBCHEM_MOLECULAR_FORMULA>
C11F22O3

> <PUBCHEM_MOLECULAR_WEIGHT>
598.08

> <PUBCHEM_SMILES>
C(=C(F)F)(OC(C(C(F)(F)F)(OC(C(C(F)(F)F)(OC(C(C(F)(F)F)(F)F)(F)F)F)(F)F)F)(F)F)F

> <PUBCHEM_OPENEYE_CAN_SMILES>
C(=C(F)F)(OC(C(C(F)(F)F)(OC(C(C(F)(F)F)(OC(C(C(F)(F)F)(F)F)(F)F)F)(F)F)F)(F)F)F

> <PUBCHEM_OPENEYE_ISO_SMILES>
C(=C(F)F)(OC(C(C(F)(F)F)(OC(C(C(F)(F)F)(OC(C(C(F)(F)F)(F)F)(F)F)F)(F)F)F)(F)F)F

> <PUBCHEM_CACTVS_TPSA>
27.7

> <PUBCHEM_MONOISOTOPIC_WEIGHT>
597.9496134

> <PUBCHEM_TOTAL_CHARGE>
0

> <PUBCHEM_HEAVY_ATOM_COUNT>
36

> <PUBCHEM_ATOM_DEF_STEREO_COUNT>
0

> <PUBCHEM_ATOM_UDEF_STEREO_COUNT>
2

> <PUBCHEM_BOND_DEF_STEREO_COUNT>
0

> <PUBCHEM_BOND_UDEF_STEREO_COUNT>
0

> <PUBCHEM_ISOTOPIC_ATOM_COUNT>
0

> <PUBCHEM_COMPONENT_COUNT>
1

> <PUBCHEM_CACTVS_TAUTO_COUNT>
-1

> <PUBCHEM_COORDINATE_TYPE>
1
5
255

> <PUBCHEM_BONDANNOTATIONS>
26  1  3
28  4  3

$$$$
