10964565
  -OEChem-04042505482D

 19 18  0     0  0  0  0  0  0999 V2000
    3.6828   -1.5953    0.0000 Na  0  3  0  0  0  0  0  0  0  0  0  0
    2.0000   -0.7849    0.0000 O   0  0  0  0  0  0  0  0  0  0  0  0
    3.6828   -0.5953    0.0000 N   0  5  0  0  0  0  0  0  0  0  0  0
    4.1828    1.5953    0.0000 C   0  0  0  0  0  0  0  0  0  0  0  0
    4.8063    0.8135    0.0000 C   0  0  0  0  0  0  0  0  0  0  0  0
    3.1828    1.5953    0.0000 C   0  0  0  0  0  0  0  0  0  0  0  0
    4.5838   -0.1614    0.0000 C   0  0  0  0  0  0  0  0  0  0  0  0
    2.5593    0.8135    0.0000 C   0  0  0  0  0  0  0  0  0  0  0  0
    2.7818   -0.1614    0.0000 C   0  0  0  0  0  0  0  0  0  0  0  0
    4.7414    1.8643    0.0000 H   0  0  0  0  0  0  0  0  0  0  0  0
    4.0448    2.1998    0.0000 H   0  0  0  0  0  0  0  0  0  0  0  0
    5.3649    0.5445    0.0000 H   0  0  0  0  0  0  0  0  0  0  0  0
    5.1928    1.2982    0.0000 H   0  0  0  0  0  0  0  0  0  0  0  0
    3.3208    2.1998    0.0000 H   0  0  0  0  0  0  0  0  0  0  0  0
    2.6242    1.8643    0.0000 H   0  0  0  0  0  0  0  0  0  0  0  0
    4.7217   -0.7659    0.0000 H   0  0  0  0  0  0  0  0  0  0  0  0
    5.2038   -0.1614    0.0000 H   0  0  0  0  0  0  0  0  0  0  0  0
    2.1728    1.2982    0.0000 H   0  0  0  0  0  0  0  0  0  0  0  0
    2.0007    0.5445    0.0000 H   0  0  0  0  0  0  0  0  0  0  0  0
  2  9  2  0  0  0  0
  3  7  1  0  0  0  0
  3  9  1  0  0  0  0
  4  5  1  0  0  0  0
  4  6  1  0  0  0  0
  4 10  1  0  0  0  0
  4 11  1  0  0  0  0
  5  7  1  0  0  0  0
  5 12  1  0  0  0  0
  5 13  1  0  0  0  0
  6  8  1  0  0  0  0
  6 14  1  0  0  0  0
  6 15  1  0  0  0  0
  7 16  1  0  0  0  0
  7 17  1  0  0  0  0
  8  9  1  0  0  0  0
  8 18  1  0  0  0  0
  8 19  1  0  0  0  0
M  CHG  2   1   1   3  -1
M  END
> <PUBCHEM_COMPOUND_CID>
10964565

> <PUBCHEM_COMPOUND_CANONICALIZED>
1

> <PUBCHEM_CACTVS_COMPLEXITY>
95.1

> <PUBCHEM_CACTVS_HBOND_ACCEPTOR>
2

> <PUBCHEM_CACTVS_HBOND_DONOR>
0

> <PUBCHEM_CACTVS_ROTATABLE_BOND>
0

> <PUBCHEM_CACTVS_SUBSKEYS>
AAADccBiICAAAAAAAAAAAAAAAAAAAAAAAAAAAAAABYAAAAAAAAAAHgAAAAAACADBgAQAAAIAAAAIAAEQEAAAAAAAAAAAAAEIAAAAABIAgAAEAAAABgCAAAEYCAAAAAAAAAAAAAAAAAAAAAAAAAAAAAAAAA==

> <PUBCHEM_IUPAC_OPENEYE_NAME>
sodium;azanidacycloheptan-2-one

> <PUBCHEM_IUPAC_CAS_NAME>
sodium;azanidacycloheptan-2-one

> <PUBCHEM_IUPAC_NAME_MARKUP>
sodium;azanidacycloheptan-2-one

> <PUBCHEM_IUPAC_NAME>
sodium;azanidacycloheptan-2-one

> <PUBCHEM_IUPAC_SYSTEMATIC_NAME>
sodium;1-azanidacycloheptan-2-one

> <PUBCHEM_IUPAC_TRADITIONAL_NAME>
sodium;azanidacycloheptan-2-one

> <PUBCHEM_IUPAC_INCHI>
InChI=1S/C6H11NO.Na/c8-6-4-2-1-3-5-7-6;/h1-5H2,(H,7,8);/q;+1/p-1

> <PUBCHEM_IUPAC_INCHIKEY>
MOMGDEWWZBKDDR-UHFFFAOYSA-M

> <PUBCHEM_EXACT_MASS>
135.06600822

> <PUBCHEM_MOLECULAR_FORMULA>
C6H10NNaO

> <PUBCHEM_MOLECULAR_WEIGHT>
135.14

> <PUBCHEM_SMILES>
C1CCC(=O)[N-]CC1.[Na+]

> <PUBCHEM_OPENEYE_CAN_SMILES>
C1CCC(=O)[N-]CC1.[Na+]

> <PUBCHEM_OPENEYE_ISO_SMILES>
C1CCC(=O)[N-]CC1.[Na+]

> <PUBCHEM_CACTVS_TPSA>
18.1

> <PUBCHEM_MONOISOTOPIC_WEIGHT>
135.06600822

> <PUBCHEM_TOTAL_CHARGE>
0

> <PUBCHEM_HEAVY_ATOM_COUNT>
9

> <PUBCHEM_ATOM_DEF_STEREO_COUNT>
0

> <PUBCHEM_ATOM_UDEF_STEREO_COUNT>
0

> <PUBCHEM_BOND_DEF_STEREO_COUNT>
0

> <PUBCHEM_BOND_UDEF_STEREO_COUNT>
0

> <PUBCHEM_ISOTOPIC_ATOM_COUNT>
0

> <PUBCHEM_COMPONENT_COUNT>
2

> <PUBCHEM_CACTVS_TAUTO_COUNT>
-1

> <PUBCHEM_NONSTANDARDBOND>
1  3  7

> <PUBCHEM_COORDINATE_TYPE>
1
5
255

$$$$
