11161794
  -OEChem-04042512402D

 16 15  0     0  0  0  0  0  0999 V2000
    2.8660   -0.8170    0.0000 S   0  0  0  0  0  0  0  0  0  0  0  0
    3.2320    0.5490    0.0000 F   0  0  0  0  0  0  0  0  0  0  0  0
    4.2320   -1.1830    0.0000 F   0  0  0  0  0  0  0  0  0  0  0  0
    4.0981    1.0490    0.0000 F   0  0  0  0  0  0  0  0  0  0  0  0
    5.0981   -0.6830    0.0000 F   0  0  0  0  0  0  0  0  0  0  0  0
    2.0000   -1.3170    0.0000 F   0  0  0  0  0  0  0  0  0  0  0  0
    6.3301   -0.8170    0.0000 F   0  0  0  0  0  0  0  0  0  0  0  0
    8.0622    0.1830    0.0000 F   0  0  0  0  0  0  0  0  0  0  0  0
    7.1962    1.6830    0.0000 F   0  0  0  0  0  0  0  0  0  0  0  0
    5.4641    0.6830    0.0000 O   0  0  0  0  0  0  0  0  0  0  0  0
    2.3660    0.0490    0.0000 O   0  0  0  0  0  0  0  0  0  0  0  0
    3.3660   -1.6830    0.0000 O   0  0  0  0  0  0  0  0  0  0  0  0
    3.7320   -0.3170    0.0000 C   0  0  0  0  0  0  0  0  0  0  0  0
    4.5981    0.1830    0.0000 C   0  0  0  0  0  0  0  0  0  0  0  0
    6.3301    0.1830    0.0000 C   0  0  0  0  0  0  0  0  0  0  0  0
    7.1962    0.6830    0.0000 C   0  0  0  0  0  0  0  0  0  0  0  0
  1  6  1  0  0  0  0
  1 11  2  0  0  0  0
  1 12  2  0  0  0  0
  1 13  1  0  0  0  0
  2 13  1  0  0  0  0
  3 13  1  0  0  0  0
  4 14  1  0  0  0  0
  5 14  1  0  0  0  0
  7 15  1  0  0  0  0
  8 16  1  0  0  0  0
  9 16  1  0  0  0  0
 10 14  1  0  0  0  0
 10 15  1  0  0  0  0
 13 14  1  0  0  0  0
 15 16  2  0  0  0  0
M  END
> <PUBCHEM_COMPOUND_CID>
11161794

> <PUBCHEM_COMPOUND_CANONICALIZED>
1

> <PUBCHEM_CACTVS_COMPLEXITY>
388

> <PUBCHEM_CACTVS_HBOND_ACCEPTOR>
11

> <PUBCHEM_CACTVS_HBOND_DONOR>
0

> <PUBCHEM_CACTVS_ROTATABLE_BOND>
4

> <PUBCHEM_CACTVS_SUBSKEYS>
AAADcQBgMcBAAAAAAAAAAAAAAAAAAAAAAAAAAAAAAAAAAAAAAAAACwQAAAQAAAAAwBAAAAAABAKAAAAAAHBACAAAAAAAAAAAAAAAAAAAAAAAAAAAAAAAAAAAAAAAAAAAAAAAAAAAAAAAAAAAAAAAAAAAAA==

> <PUBCHEM_IUPAC_OPENEYE_NAME>
1,1,2,2-tetrafluoro-2-(1,2,2-trifluorovinyloxy)ethanesulfonyl fluoride

> <PUBCHEM_IUPAC_CAS_NAME>
1,1,2,2-tetrafluoro-2-(1,2,2-trifluoroethenoxy)ethanesulfonyl fluoride

> <PUBCHEM_IUPAC_NAME_MARKUP>
1,1,2,2-tetrafluoro-2-(1,2,2-trifluoroethenoxy)ethanesulfonyl fluoride

> <PUBCHEM_IUPAC_NAME>
1,1,2,2-tetrafluoro-2-(1,2,2-trifluoroethenoxy)ethanesulfonyl fluoride

> <PUBCHEM_IUPAC_SYSTEMATIC_NAME>
1,1,2,2-tetrakis(fluoranyl)-2-[1,2,2-tris(fluoranyl)ethenoxy]ethanesulfonyl fluoride

> <PUBCHEM_IUPAC_TRADITIONAL_NAME>
1,1,2,2-tetrafluoro-2-(1,2,2-trifluorovinyloxy)ethanesulfonyl fluoride

> <PUBCHEM_IUPAC_INCHI>
InChI=1S/C4F8O3S/c5-1(6)2(7)15-3(8,9)4(10,11)16(12,13)14

> <PUBCHEM_IUPAC_INCHIKEY>
VQUGQIYAVYQSAB-UHFFFAOYSA-N

> <PUBCHEM_XLOGP3_AA>
2.6

> <PUBCHEM_EXACT_MASS>
279.94404033

> <PUBCHEM_MOLECULAR_FORMULA>
C4F8O3S

> <PUBCHEM_MOLECULAR_WEIGHT>
280.10

> <PUBCHEM_SMILES>
C(=C(F)F)(OC(C(F)(F)S(=O)(=O)F)(F)F)F

> <PUBCHEM_OPENEYE_CAN_SMILES>
C(=C(F)F)(OC(C(F)(F)S(=O)(=O)F)(F)F)F

> <PUBCHEM_OPENEYE_ISO_SMILES>
C(=C(F)F)(OC(C(F)(F)S(=O)(=O)F)(F)F)F

> <PUBCHEM_CACTVS_TPSA>
51.8

> <PUBCHEM_MONOISOTOPIC_WEIGHT>
279.94404033

> <PUBCHEM_TOTAL_CHARGE>
0

> <PUBCHEM_HEAVY_ATOM_COUNT>
16

> <PUBCHEM_ATOM_DEF_STEREO_COUNT>
0

> <PUBCHEM_ATOM_UDEF_STEREO_COUNT>
0

> <PUBCHEM_BOND_DEF_STEREO_COUNT>
0

> <PUBCHEM_BOND_UDEF_STEREO_COUNT>
0

> <PUBCHEM_ISOTOPIC_ATOM_COUNT>
0

> <PUBCHEM_COMPONENT_COUNT>
1

> <PUBCHEM_CACTVS_TAUTO_COUNT>
-1

> <PUBCHEM_COORDINATE_TYPE>
1
5
255

$$$$
