11262187
  -OEChem-04042512292D

 70 82  0     0  0  0  0  0  0999 V2000
    6.5040   -4.0060    0.0000 O   0  0  0  0  0  0  0  0  0  0  0  0
    6.5040    4.0060    0.0000 O   0  0  0  0  0  0  0  0  0  0  0  0
    4.7363   -4.1018    0.0000 N   0  0  0  0  0  0  0  0  0  0  0  0
    4.7363    4.1018    0.0000 N   0  0  0  0  0  0  0  0  0  0  0  0
    2.8872   -4.1695    0.0000 N   0  0  0  0  0  0  0  0  0  0  0  0
    2.8872    4.1695    0.0000 N   0  0  0  0  0  0  0  0  0  0  0  0
    4.6734   -1.0000    0.0000 C   0  0  0  0  0  0  0  0  0  0  0  0
    4.6734    1.0000    0.0000 C   0  0  0  0  0  0  0  0  0  0  0  0
    3.8074   -0.5000    0.0000 C   0  0  0  0  0  0  0  0  0  0  0  0
    3.8074    0.5000    0.0000 C   0  0  0  0  0  0  0  0  0  0  0  0
    5.5394   -0.5000    0.0000 C   0  0  0  0  0  0  0  0  0  0  0  0
    5.5394    0.5000    0.0000 C   0  0  0  0  0  0  0  0  0  0  0  0
    4.6894   -2.0415    0.0000 C   0  0  0  0  0  0  0  0  0  0  0  0
    4.6894    2.0415    0.0000 C   0  0  0  0  0  0  0  0  0  0  0  0
    3.7914   -2.5693    0.0000 C   0  0  0  0  0  0  0  0  0  0  0  0
    3.7914    2.5693    0.0000 C   0  0  0  0  0  0  0  0  0  0  0  0
    5.5666   -2.5043    0.0000 C   0  0  0  0  0  0  0  0  0  0  0  0
    5.5666    2.5043    0.0000 C   0  0  0  0  0  0  0  0  0  0  0  0
    3.8175   -3.6107    0.0000 C   0  0  0  0  0  0  0  0  0  0  0  0
    3.8175    3.6107    0.0000 C   0  0  0  0  0  0  0  0  0  0  0  0
    2.8974   -1.0068    0.0000 C   0  0  0  0  0  0  0  0  0  0  0  0
    2.8974    1.0068    0.0000 C   0  0  0  0  0  0  0  0  0  0  0  0
    6.3989   -0.9948    0.0000 C   0  0  0  0  0  0  0  0  0  0  0  0
    6.3989    0.9948    0.0000 C   0  0  0  0  0  0  0  0  0  0  0  0
    2.8893   -2.0484    0.0000 C   0  0  0  0  0  0  0  0  0  0  0  0
    2.8893    2.0484    0.0000 C   0  0  0  0  0  0  0  0  0  0  0  0
    6.4123   -1.9864    0.0000 C   0  0  0  0  0  0  0  0  0  0  0  0
    6.4123    1.9864    0.0000 C   0  0  0  0  0  0  0  0  0  0  0  0
    5.6167   -3.5449    0.0000 C   0  0  0  0  0  0  0  0  0  0  0  0
    5.6167    3.5449    0.0000 C   0  0  0  0  0  0  0  0  0  0  0  0
    4.7885   -5.1858    0.0000 C   0  0  0  0  0  0  0  0  0  0  0  0
    4.7885    5.1858    0.0000 C   0  0  0  0  0  0  0  0  0  0  0  0
    3.8714   -5.7659    0.0000 C   0  0  0  0  0  0  0  0  0  0  0  0
    3.8714    5.7659    0.0000 C   0  0  0  0  0  0  0  0  0  0  0  0
    2.9144   -5.2544    0.0000 C   0  0  0  0  0  0  0  0  0  0  0  0
    2.9144    5.2544    0.0000 C   0  0  0  0  0  0  0  0  0  0  0  0
    3.8998   -6.8959    0.0000 C   0  0  0  0  0  0  0  0  0  0  0  0
    3.8998    6.8959    0.0000 C   0  0  0  0  0  0  0  0  0  0  0  0
    5.7975   -5.6954    0.0000 C   0  0  0  0  0  0  0  0  0  0  0  0
    5.7975    5.6954    0.0000 C   0  0  0  0  0  0  0  0  0  0  0  0
    2.0000   -5.8264    0.0000 C   0  0  0  0  0  0  0  0  0  0  0  0
    2.0000    5.8264    0.0000 C   0  0  0  0  0  0  0  0  0  0  0  0
    4.8966   -7.4287    0.0000 C   0  0  0  0  0  0  0  0  0  0  0  0
    4.8966    7.4287    0.0000 C   0  0  0  0  0  0  0  0  0  0  0  0
    5.8519   -6.8244    0.0000 C   0  0  0  0  0  0  0  0  0  0  0  0
    5.8519    6.8244    0.0000 C   0  0  0  0  0  0  0  0  0  0  0  0
    2.9649   -7.4339    0.0000 C   0  0  0  0  0  0  0  0  0  0  0  0
    2.9649    7.4339    0.0000 C   0  0  0  0  0  0  0  0  0  0  0  0
    2.0250   -6.9048    0.0000 C   0  0  0  0  0  0  0  0  0  0  0  0
    2.0250    6.9048    0.0000 C   0  0  0  0  0  0  0  0  0  0  0  0
    2.3640   -0.6907    0.0000 H   0  0  0  0  0  0  0  0  0  0  0  0
    2.3640    0.6907    0.0000 H   0  0  0  0  0  0  0  0  0  0  0  0
    6.9335   -0.6808    0.0000 H   0  0  0  0  0  0  0  0  0  0  0  0
    6.9335    0.6808    0.0000 H   0  0  0  0  0  0  0  0  0  0  0  0
    2.3512   -2.3564    0.0000 H   0  0  0  0  0  0  0  0  0  0  0  0
    2.3512    2.3564    0.0000 H   0  0  0  0  0  0  0  0  0  0  0  0
    6.9552   -2.2858    0.0000 H   0  0  0  0  0  0  0  0  0  0  0  0
    6.9552    2.2858    0.0000 H   0  0  0  0  0  0  0  0  0  0  0  0
    6.3176   -5.3579    0.0000 H   0  0  0  0  0  0  0  0  0  0  0  0
    6.3176    5.3579    0.0000 H   0  0  0  0  0  0  0  0  0  0  0  0
    1.4542   -5.5323    0.0000 H   0  0  0  0  0  0  0  0  0  0  0  0
    1.4542    5.5323    0.0000 H   0  0  0  0  0  0  0  0  0  0  0  0
    4.9193   -8.0483    0.0000 H   0  0  0  0  0  0  0  0  0  0  0  0
    4.9193    8.0483    0.0000 H   0  0  0  0  0  0  0  0  0  0  0  0
    6.4020   -7.1103    0.0000 H   0  0  0  0  0  0  0  0  0  0  0  0
    6.4020    7.1103    0.0000 H   0  0  0  0  0  0  0  0  0  0  0  0
    2.9678   -8.0539    0.0000 H   0  0  0  0  0  0  0  0  0  0  0  0
    2.9678    8.0539    0.0000 H   0  0  0  0  0  0  0  0  0  0  0  0
    1.4934   -7.2239    0.0000 H   0  0  0  0  0  0  0  0  0  0  0  0
    1.4934    7.2239    0.0000 H   0  0  0  0  0  0  0  0  0  0  0  0
  1 29  2  0  0  0  0
  2 30  2  0  0  0  0
  3 19  1  0  0  0  0
  3 29  1  0  0  0  0
  3 31  1  0  0  0  0
  4 20  1  0  0  0  0
  4 30  1  0  0  0  0
  4 32  1  0  0  0  0
  5 19  2  0  0  0  0
  5 35  1  0  0  0  0
  6 20  2  0  0  0  0
  6 36  1  0  0  0  0
  7  9  2  0  0  0  0
  7 11  1  0  0  0  0
  7 13  1  0  0  0  0
  8 10  2  0  0  0  0
  8 12  1  0  0  0  0
  8 14  1  0  0  0  0
  9 10  1  0  0  0  0
  9 21  1  0  0  0  0
 10 22  1  0  0  0  0
 11 12  1  0  0  0  0
 11 23  2  0  0  0  0
 12 24  2  0  0  0  0
 13 15  2  0  0  0  0
 13 17  1  0  0  0  0
 14 16  2  0  0  0  0
 14 18  1  0  0  0  0
 15 19  1  0  0  0  0
 15 25  1  0  0  0  0
 16 20  1  0  0  0  0
 16 26  1  0  0  0  0
 17 27  2  0  0  0  0
 17 29  1  0  0  0  0
 18 28  2  0  0  0  0
 18 30  1  0  0  0  0
 21 25  2  0  0  0  0
 21 51  1  0  0  0  0
 22 26  2  0  0  0  0
 22 52  1  0  0  0  0
 23 27  1  0  0  0  0
 23 53  1  0  0  0  0
 24 28  1  0  0  0  0
 24 54  1  0  0  0  0
 25 55  1  0  0  0  0
 26 56  1  0  0  0  0
 27 57  1  0  0  0  0
 28 58  1  0  0  0  0
 31 33  1  0  0  0  0
 31 39  2  0  0  0  0
 32 34  1  0  0  0  0
 32 40  2  0  0  0  0
 33 35  1  0  0  0  0
 33 37  2  0  0  0  0
 34 36  1  0  0  0  0
 34 38  2  0  0  0  0
 35 41  2  0  0  0  0
 36 42  2  0  0  0  0
 37 43  1  0  0  0  0
 37 47  1  0  0  0  0
 38 44  1  0  0  0  0
 38 48  1  0  0  0  0
 39 45  1  0  0  0  0
 39 59  1  0  0  0  0
 40 46  1  0  0  0  0
 40 60  1  0  0  0  0
 41 49  1  0  0  0  0
 41 61  1  0  0  0  0
 42 50  1  0  0  0  0
 42 62  1  0  0  0  0
 43 45  2  0  0  0  0
 43 63  1  0  0  0  0
 44 46  2  0  0  0  0
 44 64  1  0  0  0  0
 45 65  1  0  0  0  0
 46 66  1  0  0  0  0
 47 49  2  0  0  0  0
 47 67  1  0  0  0  0
 48 50  2  0  0  0  0
 48 68  1  0  0  0  0
 49 69  1  0  0  0  0
 50 70  1  0  0  0  0
M  END
> <PUBCHEM_COMPOUND_CID>
11262187

> <PUBCHEM_COMPOUND_CANONICALIZED>
1

> <PUBCHEM_CACTVS_COMPLEXITY>
1460

> <PUBCHEM_CACTVS_HBOND_ACCEPTOR>
4

> <PUBCHEM_CACTVS_HBOND_DONOR>
0

> <PUBCHEM_CACTVS_ROTATABLE_BOND>
0

> <PUBCHEM_CACTVS_SUBSKEYS>
AAADceB/sAAAAAAAAAAAAAAAAAAAAAAAAAA8eMGDAAAAAADxVAAAHgAAAAAADAiBmAAxwMMAAACoAidydACCAAElAgAJiAEgZNgIILLA3dGEIQhghADIyYcYicCOwAACQAASAACAAASAACQAAAAAAAAAAA==

> <PUBCHEM_IUPAC_OPENEYE_NAME>
7,17,28,38-tetrazatridecacyclo[24.16.2.22,5.18,12.129,33.03,22.04,19.06,17.023,43.028,39.040,44.016,46.037,45]octatetraconta-1(43),2,4,6,8,10,12(46),13,15,19,21,23,25,29,31,33(45),34,36,38,40(44),41,47-docosaene-18,27-dione

> <PUBCHEM_IUPAC_CAS_NAME>
7,17,28,38-tetrazatridecacyclo[24.16.2.22,5.18,12.129,33.03,22.04,19.06,17.023,43.028,39.040,44.016,46.037,45]octatetraconta-1(43),2,4,6,8,10,12(46),13,15,19,21,23,25,29,31,33(45),34,36,38,40(44),41,47-docosaene-18,27-dione

> <PUBCHEM_IUPAC_NAME_MARKUP>
7,17,28,38-tetrazatridecacyclo[24.16.2.2<SUP>2,5</SUP>.1<SUP>8,12</SUP>.1<SUP>29,33</SUP>.0<SUP>3,22</SUP>.0<SUP>4,19</SUP>.0<SUP>6,17</SUP>.0<SUP>23,43</SUP>.0<SUP>28,39</SUP>.0<SUP>40,44</SUP>.0<SUP>16,46</SUP>.0<SUP>37,45</SUP>]octatetraconta-1(43),2,4,6,8,10,12(46),13,15,19,21,23,25,29,31,33(45),34,36,38,40(44),41,47-docosaene-18,27-dione

> <PUBCHEM_IUPAC_NAME>
7,17,28,38-tetrazatridecacyclo[24.16.2.22,5.18,12.129,33.03,22.04,19.06,17.023,43.028,39.040,44.016,46.037,45]octatetraconta-1(43),2,4,6,8,10,12(46),13,15,19,21,23,25,29,31,33(45),34,36,38,40(44),41,47-docosaene-18,27-dione

> <PUBCHEM_IUPAC_SYSTEMATIC_NAME>
7,17,28,38-tetrazatridecacyclo[24.16.2.22,5.18,12.129,33.03,22.04,19.06,17.023,43.028,39.040,44.016,46.037,45]octatetraconta-1(43),2,4,6,8,10,12(46),13,15,19,21,23,25,29,31,33(45),34,36,38,40(44),41,47-docosaene-18,27-dione

> <PUBCHEM_IUPAC_TRADITIONAL_NAME>
7,17,28,38-tetrazatridecacyclo[24.16.2.22,5.18,12.129,33.03,22.04,19.06,17.023,43.028,39.040,44.016,46.037,45]octatetraconta-1(43),2,4,6,8,10,12(46),13,15,19,21,23,25,29,31,33(45),34,36,38,40(44),41,47-docosaene-18,27-quinone

> <PUBCHEM_IUPAC_INCHI>
InChI=1S/C44H20N4O2/c49-43-29-19-15-25-26-16-20-30-40-28(42-46-32-10-2-6-22-8-4-12-34(36(22)32)48(42)44(30)50)18-14-24(38(26)40)23-13-17-27(39(29)37(23)25)41-45-31-9-1-5-21-7-3-11-33(35(21)31)47(41)43/h1-20H

> <PUBCHEM_IUPAC_INCHIKEY>
VTLXZLNLMZETPM-UHFFFAOYSA-N

> <PUBCHEM_XLOGP3_AA>
8.7

> <PUBCHEM_EXACT_MASS>
636.15862589

> <PUBCHEM_MOLECULAR_FORMULA>
C44H20N4O2

> <PUBCHEM_MOLECULAR_WEIGHT>
636.7

> <PUBCHEM_SMILES>
C1=CC2=C3C(=C1)N=C4C5=C6C(=CC=C7C6=C(C=C5)C8=C9C7=CC=C1C9=C(C=C8)C5=NC6=CC=CC7=C6C(=CC=C7)N5C1=O)C(=O)N4C3=CC=C2

> <PUBCHEM_OPENEYE_CAN_SMILES>
C1=CC2=C3C(=C1)N=C4C5=C6C(=CC=C7C6=C(C=C5)C8=C9C7=CC=C1C9=C(C=C8)C5=NC6=CC=CC7=C6C(=CC=C7)N5C1=O)C(=O)N4C3=CC=C2

> <PUBCHEM_OPENEYE_ISO_SMILES>
C1=CC2=C3C(=C1)N=C4C5=C6C(=CC=C7C6=C(C=C5)C8=C9C7=CC=C1C9=C(C=C8)C5=NC6=CC=CC7=C6C(=CC=C7)N5C1=O)C(=O)N4C3=CC=C2

> <PUBCHEM_CACTVS_TPSA>
65.3

> <PUBCHEM_MONOISOTOPIC_WEIGHT>
636.15862589

> <PUBCHEM_TOTAL_CHARGE>
0

> <PUBCHEM_HEAVY_ATOM_COUNT>
50

> <PUBCHEM_ATOM_DEF_STEREO_COUNT>
0

> <PUBCHEM_ATOM_UDEF_STEREO_COUNT>
0

> <PUBCHEM_BOND_DEF_STEREO_COUNT>
0

> <PUBCHEM_BOND_UDEF_STEREO_COUNT>
0

> <PUBCHEM_ISOTOPIC_ATOM_COUNT>
0

> <PUBCHEM_COMPONENT_COUNT>
1

> <PUBCHEM_CACTVS_TAUTO_COUNT>
-1

> <PUBCHEM_COORDINATE_TYPE>
1
5
255

> <PUBCHEM_BONDANNOTATIONS>
10  22  8
11  12  8
11  23  8
12  24  8
13  15  8
13  17  8
14  16  8
14  18  8
15  19  8
15  25  8
16  20  8
16  26  8
17  27  8
17  29  8
18  28  8
18  30  8
21  25  8
22  26  8
23  27  8
24  28  8
3  19  8
3  29  8
3  31  8
31  33  8
31  39  8
32  34  8
32  40  8
33  35  8
33  37  8
34  36  8
34  38  8
35  41  8
36  42  8
37  43  8
37  47  8
38  44  8
38  48  8
39  45  8
4  20  8
4  30  8
4  32  8
40  46  8
41  49  8
42  50  8
43  45  8
44  46  8
47  49  8
48  50  8
5  19  8
5  35  8
6  20  8
6  36  8
7  11  8
7  13  8
7  9  8
8  10  8
8  12  8
8  14  8
9  10  8
9  21  8

$$$$
