113646
  -OEChem-04042505422D

 72 72  0     0  0  0  0  0  0999 V2000
    8.9282    3.5950    0.0000 S   0  0  0  0  0  0  0  0  0  0  0  0
   12.3923    0.5950    0.0000 S   0  0  0  0  0  0  0  0  0  0  0  0
   11.5263    5.0950    0.0000 O   0  0  0  0  0  0  0  0  0  0  0  0
    5.4641    3.5950    0.0000 C   0  0  0  0  0  0  0  0  0  0  0  0
   14.1244   -2.4050    0.0000 C   0  0  0  0  0  0  0  0  0  0  0  0
    6.3301    4.0950    0.0000 C   0  0  0  0  0  0  0  0  0  0  0  0
   13.2583   -1.9050    0.0000 C   0  0  0  0  0  0  0  0  0  0  0  0
    4.5981    4.0950    0.0000 C   0  0  0  0  0  0  0  0  0  0  0  0
   14.1244   -3.4050    0.0000 C   0  0  0  0  0  0  0  0  0  0  0  0
    7.1962    3.5950    0.0000 C   0  0  0  0  0  0  0  0  0  0  0  0
   13.2583   -0.9050    0.0000 C   0  0  0  0  0  0  0  0  0  0  0  0
    3.7320    3.5950    0.0000 C   0  0  0  0  0  0  0  0  0  0  0  0
   14.9904   -3.9050    0.0000 C   0  0  0  0  0  0  0  0  0  0  0  0
    8.0622    4.0950    0.0000 C   0  0  0  0  0  0  0  0  0  0  0  0
   12.3923   -0.4050    0.0000 C   0  0  0  0  0  0  0  0  0  0  0  0
    2.8660    4.0950    0.0000 C   0  0  0  0  0  0  0  0  0  0  0  0
   14.9904   -4.9050    0.0000 C   0  0  0  0  0  0  0  0  0  0  0  0
   10.6603    3.5950    0.0000 C   0  0  0  0  0  0  0  0  0  0  0  0
    9.7942    4.0950    0.0000 C   0  0  0  0  0  0  0  0  0  0  0  0
   11.5263    2.0950    0.0000 C   0  0  0  0  0  0  0  0  0  0  0  0
   11.5263    1.0950    0.0000 C   0  0  0  0  0  0  0  0  0  0  0  0
    2.0000    3.5950    0.0000 C   0  0  0  0  0  0  0  0  0  0  0  0
   15.8564   -5.4050    0.0000 C   0  0  0  0  0  0  0  0  0  0  0  0
   10.6603    2.5950    0.0000 C   0  0  0  0  0  0  0  0  0  0  0  0
   11.5263    4.0950    0.0000 C   0  0  0  0  0  0  0  0  0  0  0  0
   12.3923    3.5950    0.0000 C   0  0  0  0  0  0  0  0  0  0  0  0
   12.3923    2.5950    0.0000 C   0  0  0  0  0  0  0  0  0  0  0  0
   13.2583    4.0950    0.0000 C   0  0  0  0  0  0  0  0  0  0  0  0
    5.0656    3.1200    0.0000 H   0  0  0  0  0  0  0  0  0  0  0  0
    5.8626    3.1200    0.0000 H   0  0  0  0  0  0  0  0  0  0  0  0
   14.7349   -2.5127    0.0000 H   0  0  0  0  0  0  0  0  0  0  0  0
   14.3364   -1.8224    0.0000 H   0  0  0  0  0  0  0  0  0  0  0  0
    6.7287    4.5700    0.0000 H   0  0  0  0  0  0  0  0  0  0  0  0
    5.9316    4.5700    0.0000 H   0  0  0  0  0  0  0  0  0  0  0  0
   12.6477   -1.7973    0.0000 H   0  0  0  0  0  0  0  0  0  0  0  0
   13.0463   -2.4876    0.0000 H   0  0  0  0  0  0  0  0  0  0  0  0
    4.9966    4.5700    0.0000 H   0  0  0  0  0  0  0  0  0  0  0  0
    4.1996    4.5700    0.0000 H   0  0  0  0  0  0  0  0  0  0  0  0
   13.5138   -3.2973    0.0000 H   0  0  0  0  0  0  0  0  0  0  0  0
   13.9123   -3.9876    0.0000 H   0  0  0  0  0  0  0  0  0  0  0  0
    6.7976    3.1200    0.0000 H   0  0  0  0  0  0  0  0  0  0  0  0
    7.5947    3.1200    0.0000 H   0  0  0  0  0  0  0  0  0  0  0  0
   13.8689   -1.0127    0.0000 H   0  0  0  0  0  0  0  0  0  0  0  0
   13.4704   -0.3224    0.0000 H   0  0  0  0  0  0  0  0  0  0  0  0
    3.3335    3.1200    0.0000 H   0  0  0  0  0  0  0  0  0  0  0  0
    4.1306    3.1200    0.0000 H   0  0  0  0  0  0  0  0  0  0  0  0
   15.6010   -4.0127    0.0000 H   0  0  0  0  0  0  0  0  0  0  0  0
   15.2024   -3.3224    0.0000 H   0  0  0  0  0  0  0  0  0  0  0  0
    8.4607    4.5700    0.0000 H   0  0  0  0  0  0  0  0  0  0  0  0
    7.6636    4.5700    0.0000 H   0  0  0  0  0  0  0  0  0  0  0  0
   11.7817   -0.2973    0.0000 H   0  0  0  0  0  0  0  0  0  0  0  0
   12.1803   -0.9876    0.0000 H   0  0  0  0  0  0  0  0  0  0  0  0
    3.2646    4.5700    0.0000 H   0  0  0  0  0  0  0  0  0  0  0  0
    2.4675    4.5700    0.0000 H   0  0  0  0  0  0  0  0  0  0  0  0
   14.3798   -4.7973    0.0000 H   0  0  0  0  0  0  0  0  0  0  0  0
   14.7783   -5.4876    0.0000 H   0  0  0  0  0  0  0  0  0  0  0  0
   10.1928    4.5700    0.0000 H   0  0  0  0  0  0  0  0  0  0  0  0
    9.3957    4.5700    0.0000 H   0  0  0  0  0  0  0  0  0  0  0  0
   10.9157    1.2027    0.0000 H   0  0  0  0  0  0  0  0  0  0  0  0
   11.3142    0.5124    0.0000 H   0  0  0  0  0  0  0  0  0  0  0  0
   10.1233    2.2850    0.0000 H   0  0  0  0  0  0  0  0  0  0  0  0
    1.6900    4.1319    0.0000 H   0  0  0  0  0  0  0  0  0  0  0  0
    1.4631    3.2850    0.0000 H   0  0  0  0  0  0  0  0  0  0  0  0
    2.3100    3.0581    0.0000 H   0  0  0  0  0  0  0  0  0  0  0  0
   15.5464   -5.9419    0.0000 H   0  0  0  0  0  0  0  0  0  0  0  0
   16.3933   -5.7150    0.0000 H   0  0  0  0  0  0  0  0  0  0  0  0
   16.1664   -4.8681    0.0000 H   0  0  0  0  0  0  0  0  0  0  0  0
   12.9292    2.2850    0.0000 H   0  0  0  0  0  0  0  0  0  0  0  0
   13.5683    3.5581    0.0000 H   0  0  0  0  0  0  0  0  0  0  0  0
   13.7953    4.4050    0.0000 H   0  0  0  0  0  0  0  0  0  0  0  0
   12.9483    4.6319    0.0000 H   0  0  0  0  0  0  0  0  0  0  0  0
   12.0632    5.4050    0.0000 H   0  0  0  0  0  0  0  0  0  0  0  0
  1 14  1  0  0  0  0
  1 19  1  0  0  0  0
  2 15  1  0  0  0  0
  2 21  1  0  0  0  0
  3 25  1  0  0  0  0
  3 72  1  0  0  0  0
  4  6  1  0  0  0  0
  4  8  1  0  0  0  0
  4 29  1  0  0  0  0
  4 30  1  0  0  0  0
  5  7  1  0  0  0  0
  5  9  1  0  0  0  0
  5 31  1  0  0  0  0
  5 32  1  0  0  0  0
  6 10  1  0  0  0  0
  6 33  1  0  0  0  0
  6 34  1  0  0  0  0
  7 11  1  0  0  0  0
  7 35  1  0  0  0  0
  7 36  1  0  0  0  0
  8 12  1  0  0  0  0
  8 37  1  0  0  0  0
  8 38  1  0  0  0  0
  9 13  1  0  0  0  0
  9 39  1  0  0  0  0
  9 40  1  0  0  0  0
 10 14  1  0  0  0  0
 10 41  1  0  0  0  0
 10 42  1  0  0  0  0
 11 15  1  0  0  0  0
 11 43  1  0  0  0  0
 11 44  1  0  0  0  0
 12 16  1  0  0  0  0
 12 45  1  0  0  0  0
 12 46  1  0  0  0  0
 13 17  1  0  0  0  0
 13 47  1  0  0  0  0
 13 48  1  0  0  0  0
 14 49  1  0  0  0  0
 14 50  1  0  0  0  0
 15 51  1  0  0  0  0
 15 52  1  0  0  0  0
 16 22  1  0  0  0  0
 16 53  1  0  0  0  0
 16 54  1  0  0  0  0
 17 23  1  0  0  0  0
 17 55  1  0  0  0  0
 17 56  1  0  0  0  0
 18 19  1  0  0  0  0
 18 24  1  0  0  0  0
 18 25  2  0  0  0  0
 19 57  1  0  0  0  0
 19 58  1  0  0  0  0
 20 21  1  0  0  0  0
 20 24  2  0  0  0  0
 20 27  1  0  0  0  0
 21 59  1  0  0  0  0
 21 60  1  0  0  0  0
 22 62  1  0  0  0  0
 22 63  1  0  0  0  0
 22 64  1  0  0  0  0
 23 65  1  0  0  0  0
 23 66  1  0  0  0  0
 23 67  1  0  0  0  0
 24 61  1  0  0  0  0
 25 26  1  0  0  0  0
 26 27  2  0  0  0  0
 26 28  1  0  0  0  0
 27 68  1  0  0  0  0
 28 69  1  0  0  0  0
 28 70  1  0  0  0  0
 28 71  1  0  0  0  0
M  END
> <PUBCHEM_COMPOUND_CID>
113646

> <PUBCHEM_COMPOUND_CANONICALIZED>
1

> <PUBCHEM_CACTVS_COMPLEXITY>
337

> <PUBCHEM_CACTVS_HBOND_ACCEPTOR>
3

> <PUBCHEM_CACTVS_HBOND_DONOR>
1

> <PUBCHEM_CACTVS_ROTATABLE_BOND>
18

> <PUBCHEM_CACTVS_SUBSKEYS>
AAADcfB4IABgAAAAAAAAAAAAAAAAAAAAAAAwAAAAAAAAAAABAAAAGgQACAAADASE2ACyBoAAAgiAAiBCAAACAAAgIBAAiAAECIgIJiKiERKAcAAkwBEomAeAwOAOIAACAAAIAABAAAQAABAAAAAAAAAAAA==

> <PUBCHEM_IUPAC_OPENEYE_NAME>
2-methyl-4,6-bis(octylsulfanylmethyl)phenol

> <PUBCHEM_IUPAC_CAS_NAME>
2-methyl-4,6-bis[(octylthio)methyl]phenol

> <PUBCHEM_IUPAC_NAME_MARKUP>
2-methyl-4,6-bis(octylsulfanylmethyl)phenol

> <PUBCHEM_IUPAC_NAME>
2-methyl-4,6-bis(octylsulfanylmethyl)phenol

> <PUBCHEM_IUPAC_SYSTEMATIC_NAME>
2-methyl-4,6-bis(octylsulfanylmethyl)phenol

> <PUBCHEM_IUPAC_TRADITIONAL_NAME>
2-methyl-4,6-bis[(octylthio)methyl]phenol

> <PUBCHEM_IUPAC_INCHI>
InChI=1S/C25H44OS2/c1-4-6-8-10-12-14-16-27-20-23-18-22(3)25(26)24(19-23)21-28-17-15-13-11-9-7-5-2/h18-19,26H,4-17,20-21H2,1-3H3

> <PUBCHEM_IUPAC_INCHIKEY>
GAODDBNJCKQQDY-UHFFFAOYSA-N

> <PUBCHEM_XLOGP3_AA>
9.7

> <PUBCHEM_EXACT_MASS>
424.28335837

> <PUBCHEM_MOLECULAR_FORMULA>
C25H44OS2

> <PUBCHEM_MOLECULAR_WEIGHT>
424.8

> <PUBCHEM_SMILES>
CCCCCCCCSCC1=CC(=C(C(=C1)C)O)CSCCCCCCCC

> <PUBCHEM_OPENEYE_CAN_SMILES>
CCCCCCCCSCC1=CC(=C(C(=C1)C)O)CSCCCCCCCC

> <PUBCHEM_OPENEYE_ISO_SMILES>
CCCCCCCCSCC1=CC(=C(C(=C1)C)O)CSCCCCCCCC

> <PUBCHEM_CACTVS_TPSA>
70.8

> <PUBCHEM_MONOISOTOPIC_WEIGHT>
424.28335837

> <PUBCHEM_TOTAL_CHARGE>
0

> <PUBCHEM_HEAVY_ATOM_COUNT>
28

> <PUBCHEM_ATOM_DEF_STEREO_COUNT>
0

> <PUBCHEM_ATOM_UDEF_STEREO_COUNT>
0

> <PUBCHEM_BOND_DEF_STEREO_COUNT>
0

> <PUBCHEM_BOND_UDEF_STEREO_COUNT>
0

> <PUBCHEM_ISOTOPIC_ATOM_COUNT>
0

> <PUBCHEM_COMPONENT_COUNT>
1

> <PUBCHEM_CACTVS_TAUTO_COUNT>
-1

> <PUBCHEM_COORDINATE_TYPE>
1
5
255

> <PUBCHEM_BONDANNOTATIONS>
18  24  8
18  25  8
20  24  8
20  27  8
25  26  8
26  27  8

$$$$
