11398080
  -OEChem-04042512332D

 83 84  0     0  0  0  0  0  0999 V2000
    6.3301    2.0000    0.0000 P   0  0  0  0  0  0  0  0  0  0  0  0
    6.3301   -2.0000    0.0000 P   0  0  0  0  0  0  0  0  0  0  0  0
    7.1962    1.5000    0.0000 O   0  0  0  0  0  0  0  0  0  0  0  0
    5.4641    1.5000    0.0000 O   0  0  0  0  0  0  0  0  0  0  0  0
    7.1962   -1.5000    0.0000 O   0  0  0  0  0  0  0  0  0  0  0  0
    5.4641   -1.5000    0.0000 O   0  0  0  0  0  0  0  0  0  0  0  0
    6.3301    3.0000    0.0000 O   0  0  0  0  0  0  0  0  0  0  0  0
    6.3301   -3.0000    0.0000 O   0  0  0  0  0  0  0  0  0  0  0  0
    6.3301    0.0000    0.0000 C   0  0  0  0  0  0  0  0  0  0  0  0
    7.1962    0.5000    0.0000 C   0  0  0  0  0  0  0  0  0  0  0  0
    5.4641    0.5000    0.0000 C   0  0  0  0  0  0  0  0  0  0  0  0
    7.1962   -0.5000    0.0000 C   0  0  0  0  0  0  0  0  0  0  0  0
    5.4641   -0.5000    0.0000 C   0  0  0  0  0  0  0  0  0  0  0  0
    8.9282    6.5000    0.0000 C   0  0  0  0  0  0  0  0  0  0  0  0
    3.7320   -6.5000    0.0000 C   0  0  0  0  0  0  0  0  0  0  0  0
    8.0622    6.0000    0.0000 C   0  0  0  0  0  0  0  0  0  0  0  0
    4.5981   -6.0000    0.0000 C   0  0  0  0  0  0  0  0  0  0  0  0
    8.9282    7.5000    0.0000 C   0  0  0  0  0  0  0  0  0  0  0  0
    3.7320   -7.5000    0.0000 C   0  0  0  0  0  0  0  0  0  0  0  0
    8.0622    5.0000    0.0000 C   0  0  0  0  0  0  0  0  0  0  0  0
    4.5981   -5.0000    0.0000 C   0  0  0  0  0  0  0  0  0  0  0  0
    9.7942    8.0000    0.0000 C   0  0  0  0  0  0  0  0  0  0  0  0
    2.8660   -8.0000    0.0000 C   0  0  0  0  0  0  0  0  0  0  0  0
    7.1962    4.5000    0.0000 C   0  0  0  0  0  0  0  0  0  0  0  0
    5.4641   -4.5000    0.0000 C   0  0  0  0  0  0  0  0  0  0  0  0
    9.7942    9.0000    0.0000 C   0  0  0  0  0  0  0  0  0  0  0  0
    2.8660   -9.0000    0.0000 C   0  0  0  0  0  0  0  0  0  0  0  0
    7.1962    3.5000    0.0000 C   0  0  0  0  0  0  0  0  0  0  0  0
    5.4641   -3.5000    0.0000 C   0  0  0  0  0  0  0  0  0  0  0  0
   10.6603    9.5000    0.0000 C   0  0  0  0  0  0  0  0  0  0  0  0
    8.9282    9.5000    0.0000 C   0  0  0  0  0  0  0  0  0  0  0  0
    2.0000   -9.5000    0.0000 C   0  0  0  0  0  0  0  0  0  0  0  0
    3.7320   -9.5000    0.0000 C   0  0  0  0  0  0  0  0  0  0  0  0
    7.4082   -0.0826    0.0000 H   0  0  0  0  0  0  0  0  0  0  0  0
    7.8067    0.6077    0.0000 H   0  0  0  0  0  0  0  0  0  0  0  0
    4.8535    0.6077    0.0000 H   0  0  0  0  0  0  0  0  0  0  0  0
    5.2520   -0.0826    0.0000 H   0  0  0  0  0  0  0  0  0  0  0  0
    7.8067   -0.6077    0.0000 H   0  0  0  0  0  0  0  0  0  0  0  0
    7.4082    0.0826    0.0000 H   0  0  0  0  0  0  0  0  0  0  0  0
    5.2520    0.0826    0.0000 H   0  0  0  0  0  0  0  0  0  0  0  0
    4.8535   -0.6077    0.0000 H   0  0  0  0  0  0  0  0  0  0  0  0
    9.1403    5.9174    0.0000 H   0  0  0  0  0  0  0  0  0  0  0  0
    9.5388    6.6077    0.0000 H   0  0  0  0  0  0  0  0  0  0  0  0
    3.5200   -5.9174    0.0000 H   0  0  0  0  0  0  0  0  0  0  0  0
    3.1215   -6.6077    0.0000 H   0  0  0  0  0  0  0  0  0  0  0  0
    7.8501    6.5826    0.0000 H   0  0  0  0  0  0  0  0  0  0  0  0
    7.4516    5.8923    0.0000 H   0  0  0  0  0  0  0  0  0  0  0  0
    4.8101   -6.5826    0.0000 H   0  0  0  0  0  0  0  0  0  0  0  0
    5.2087   -5.8923    0.0000 H   0  0  0  0  0  0  0  0  0  0  0  0
    8.7162    8.0826    0.0000 H   0  0  0  0  0  0  0  0  0  0  0  0
    8.3176    7.3923    0.0000 H   0  0  0  0  0  0  0  0  0  0  0  0
    3.9441   -8.0826    0.0000 H   0  0  0  0  0  0  0  0  0  0  0  0
    4.3426   -7.3923    0.0000 H   0  0  0  0  0  0  0  0  0  0  0  0
    8.2742    4.4174    0.0000 H   0  0  0  0  0  0  0  0  0  0  0  0
    8.6728    5.1077    0.0000 H   0  0  0  0  0  0  0  0  0  0  0  0
    4.3860   -4.4174    0.0000 H   0  0  0  0  0  0  0  0  0  0  0  0
    3.9875   -5.1077    0.0000 H   0  0  0  0  0  0  0  0  0  0  0  0
   10.0063    7.4174    0.0000 H   0  0  0  0  0  0  0  0  0  0  0  0
   10.4048    8.1077    0.0000 H   0  0  0  0  0  0  0  0  0  0  0  0
    2.6540   -7.4174    0.0000 H   0  0  0  0  0  0  0  0  0  0  0  0
    2.2554   -8.1077    0.0000 H   0  0  0  0  0  0  0  0  0  0  0  0
    6.9841    5.0826    0.0000 H   0  0  0  0  0  0  0  0  0  0  0  0
    6.5856    4.3923    0.0000 H   0  0  0  0  0  0  0  0  0  0  0  0
    5.6762   -5.0826    0.0000 H   0  0  0  0  0  0  0  0  0  0  0  0
    6.0747   -4.3923    0.0000 H   0  0  0  0  0  0  0  0  0  0  0  0
    9.2573    8.6900    0.0000 H   0  0  0  0  0  0  0  0  0  0  0  0
    2.8660   -9.6200    0.0000 H   0  0  0  0  0  0  0  0  0  0  0  0
    7.4082    2.9174    0.0000 H   0  0  0  0  0  0  0  0  0  0  0  0
    7.8067    3.6077    0.0000 H   0  0  0  0  0  0  0  0  0  0  0  0
    5.2520   -2.9174    0.0000 H   0  0  0  0  0  0  0  0  0  0  0  0
    4.8535   -3.6077    0.0000 H   0  0  0  0  0  0  0  0  0  0  0  0
   10.9703    8.9631    0.0000 H   0  0  0  0  0  0  0  0  0  0  0  0
   11.1972    9.8100    0.0000 H   0  0  0  0  0  0  0  0  0  0  0  0
   10.3503   10.0369    0.0000 H   0  0  0  0  0  0  0  0  0  0  0  0
    9.2382   10.0369    0.0000 H   0  0  0  0  0  0  0  0  0  0  0  0
    8.3913    9.8100    0.0000 H   0  0  0  0  0  0  0  0  0  0  0  0
    8.6182    8.9631    0.0000 H   0  0  0  0  0  0  0  0  0  0  0  0
    1.6900   -8.9631    0.0000 H   0  0  0  0  0  0  0  0  0  0  0  0
    1.4631   -9.8100    0.0000 H   0  0  0  0  0  0  0  0  0  0  0  0
    2.3100  -10.0369    0.0000 H   0  0  0  0  0  0  0  0  0  0  0  0
    3.4220  -10.0369    0.0000 H   0  0  0  0  0  0  0  0  0  0  0  0
    4.2690   -9.8100    0.0000 H   0  0  0  0  0  0  0  0  0  0  0  0
    4.0420   -8.9631    0.0000 H   0  0  0  0  0  0  0  0  0  0  0  0
  1  3  1  0  0  0  0
  1  4  1  0  0  0  0
  1  7  1  0  0  0  0
  2  5  1  0  0  0  0
  2  6  1  0  0  0  0
  2  8  1  0  0  0  0
  3 10  1  0  0  0  0
  4 11  1  0  0  0  0
  5 12  1  0  0  0  0
  6 13  1  0  0  0  0
  7 28  1  0  0  0  0
  8 29  1  0  0  0  0
  9 10  1  0  0  0  0
  9 11  1  0  0  0  0
  9 12  1  0  0  0  0
  9 13  1  0  0  0  0
 10 34  1  0  0  0  0
 10 35  1  0  0  0  0
 11 36  1  0  0  0  0
 11 37  1  0  0  0  0
 12 38  1  0  0  0  0
 12 39  1  0  0  0  0
 13 40  1  0  0  0  0
 13 41  1  0  0  0  0
 14 16  1  0  0  0  0
 14 18  1  0  0  0  0
 14 42  1  0  0  0  0
 14 43  1  0  0  0  0
 15 17  1  0  0  0  0
 15 19  1  0  0  0  0
 15 44  1  0  0  0  0
 15 45  1  0  0  0  0
 16 20  1  0  0  0  0
 16 46  1  0  0  0  0
 16 47  1  0  0  0  0
 17 21  1  0  0  0  0
 17 48  1  0  0  0  0
 17 49  1  0  0  0  0
 18 22  1  0  0  0  0
 18 50  1  0  0  0  0
 18 51  1  0  0  0  0
 19 23  1  0  0  0  0
 19 52  1  0  0  0  0
 19 53  1  0  0  0  0
 20 24  1  0  0  0  0
 20 54  1  0  0  0  0
 20 55  1  0  0  0  0
 21 25  1  0  0  0  0
 21 56  1  0  0  0  0
 21 57  1  0  0  0  0
 22 26  1  0  0  0  0
 22 58  1  0  0  0  0
 22 59  1  0  0  0  0
 23 27  1  0  0  0  0
 23 60  1  0  0  0  0
 23 61  1  0  0  0  0
 24 28  1  0  0  0  0
 24 62  1  0  0  0  0
 24 63  1  0  0  0  0
 25 29  1  0  0  0  0
 25 64  1  0  0  0  0
 25 65  1  0  0  0  0
 26 30  1  0  0  0  0
 26 31  1  0  0  0  0
 26 66  1  0  0  0  0
 27 32  1  0  0  0  0
 27 33  1  0  0  0  0
 27 67  1  0  0  0  0
 28 68  1  0  0  0  0
 28 69  1  0  0  0  0
 29 70  1  0  0  0  0
 29 71  1  0  0  0  0
 30 72  1  0  0  0  0
 30 73  1  0  0  0  0
 30 74  1  0  0  0  0
 31 75  1  0  0  0  0
 31 76  1  0  0  0  0
 31 77  1  0  0  0  0
 32 78  1  0  0  0  0
 32 79  1  0  0  0  0
 32 80  1  0  0  0  0
 33 81  1  0  0  0  0
 33 82  1  0  0  0  0
 33 83  1  0  0  0  0
M  END
> <PUBCHEM_COMPOUND_CID>
11398080

> <PUBCHEM_COMPOUND_CANONICALIZED>
1

> <PUBCHEM_CACTVS_COMPLEXITY>
418

> <PUBCHEM_CACTVS_HBOND_ACCEPTOR>
6

> <PUBCHEM_CACTVS_HBOND_DONOR>
0

> <PUBCHEM_CACTVS_ROTATABLE_BOND>
18

> <PUBCHEM_CACTVS_SUBSKEYS>
AAADcfB4OAMAAAAAAAAAAAAAAAAAAAAAAAAkSAAAAAAAAAAAAAAAGgAAACAADwCggAICAAAAARAAAAAAAAAAAAAAAAAAAAAAAAAAAAIAAAAAAAAFAAAAAAGAwOAMAAAAAAAAAAAAAAAAAAAAAAAAAAAAAA==

> <PUBCHEM_IUPAC_OPENEYE_NAME>
3,9-bis(8-methylnonoxy)-2,4,8,10-tetraoxa-3,9-diphosphaspiro[5.5]undecane

> <PUBCHEM_IUPAC_CAS_NAME>
3,9-bis(8-methylnonoxy)-2,4,8,10-tetraoxa-3,9-diphosphaspiro[5.5]undecane

> <PUBCHEM_IUPAC_NAME_MARKUP>
3,9-bis(8-methylnonoxy)-2,4,8,10-tetraoxa-3,9-diphosphaspiro[5.5]undecane

> <PUBCHEM_IUPAC_NAME>
3,9-bis(8-methylnonoxy)-2,4,8,10-tetraoxa-3,9-diphosphaspiro[5.5]undecane

> <PUBCHEM_IUPAC_SYSTEMATIC_NAME>
3,9-bis(8-methylnonoxy)-2,4,8,10-tetraoxa-3,9-diphosphaspiro[5.5]undecane

> <PUBCHEM_IUPAC_TRADITIONAL_NAME>
3,9-bis(8-methylnonoxy)-2,4,8,10-tetraoxa-3,9-diphosphaspiro[5.5]undecane

> <PUBCHEM_IUPAC_INCHI>
InChI=1S/C25H50O6P2/c1-23(2)15-11-7-5-9-13-17-26-32-28-19-25(20-29-32)21-30-33(31-22-25)27-18-14-10-6-8-12-16-24(3)4/h23-24H,5-22H2,1-4H3

> <PUBCHEM_IUPAC_INCHIKEY>
YLUZWKKWWSCRSR-UHFFFAOYSA-N

> <PUBCHEM_XLOGP3_AA>
8

> <PUBCHEM_EXACT_MASS>
508.30826331

> <PUBCHEM_MOLECULAR_FORMULA>
C25H50O6P2

> <PUBCHEM_MOLECULAR_WEIGHT>
508.6

> <PUBCHEM_SMILES>
CC(C)CCCCCCCOP1OCC2(CO1)COP(OC2)OCCCCCCCC(C)C

> <PUBCHEM_OPENEYE_CAN_SMILES>
CC(C)CCCCCCCOP1OCC2(CO1)COP(OC2)OCCCCCCCC(C)C

> <PUBCHEM_OPENEYE_ISO_SMILES>
CC(C)CCCCCCCOP1OCC2(CO1)COP(OC2)OCCCCCCCC(C)C

> <PUBCHEM_CACTVS_TPSA>
55.4

> <PUBCHEM_MONOISOTOPIC_WEIGHT>
508.30826331

> <PUBCHEM_TOTAL_CHARGE>
0

> <PUBCHEM_HEAVY_ATOM_COUNT>
33

> <PUBCHEM_ATOM_DEF_STEREO_COUNT>
0

> <PUBCHEM_ATOM_UDEF_STEREO_COUNT>
0

> <PUBCHEM_BOND_DEF_STEREO_COUNT>
0

> <PUBCHEM_BOND_UDEF_STEREO_COUNT>
0

> <PUBCHEM_ISOTOPIC_ATOM_COUNT>
0

> <PUBCHEM_COMPONENT_COUNT>
1

> <PUBCHEM_CACTVS_TAUTO_COUNT>
-1

> <PUBCHEM_COORDINATE_TYPE>
1
5
255

$$$$
