114481
  -OEChem-04042506012D

 21 20  0     1  0  0  0  0  0999 V2000
    5.0000   -2.1830    0.0000 F   0  0  0  0  0  0  0  0  0  0  0  0
    6.0000   -1.1830    0.0000 F   0  0  0  0  0  0  0  0  0  0  0  0
    4.0000   -2.1830    0.0000 F   0  0  0  0  0  0  0  0  0  0  0  0
    4.0000   -0.1830    0.0000 F   0  0  0  0  0  0  0  0  0  0  0  0
    6.3660   -0.5490    0.0000 F   0  0  0  0  0  0  0  0  0  0  0  0
    2.0000   -1.1830    0.0000 F   0  0  0  0  0  0  0  0  0  0  0  0
    3.0000   -2.1830    0.0000 F   0  0  0  0  0  0  0  0  0  0  0  0
    3.0000   -0.1830    0.0000 F   0  0  0  0  0  0  0  0  0  0  0  0
    7.5981    1.3170    0.0000 F   0  0  0  0  0  0  0  0  0  0  0  0
    6.7320    1.8170    0.0000 F   0  0  0  0  0  0  0  0  0  0  0  0
    7.2320   -0.0490    0.0000 F   0  0  0  0  0  0  0  0  0  0  0  0
    5.0000   -0.1830    0.0000 O   0  0  0  0  0  0  0  0  0  0  0  0
    4.3660    1.1830    0.0000 O   0  0  0  0  0  0  0  0  0  0  0  0
    5.3660    2.1830    0.0000 O   0  0  0  0  0  0  0  0  0  0  0  0
    5.0000   -1.1830    0.0000 C   0  0  0  0  0  0  0  0  0  0  0  0
    4.0000   -1.1830    0.0000 C   0  0  0  0  0  0  0  0  0  0  0  0
    5.8660    0.3170    0.0000 C   0  0  3  0  0  0  0  0  0  0  0  0
    3.0000   -1.1830    0.0000 C   0  0  0  0  0  0  0  0  0  0  0  0
    6.7320    0.8170    0.0000 C   0  0  0  0  0  0  0  0  0  0  0  0
    5.3660    1.1830    0.0000 C   0  0  0  0  0  0  0  0  0  0  0  0
    4.0560    1.7200    0.0000 H   0  0  0  0  0  0  0  0  0  0  0  0
  1 15  1  0  0  0  0
  2 15  1  0  0  0  0
  3 16  1  0  0  0  0
  4 16  1  0  0  0  0
  5 17  1  0  0  0  0
  6 18  1  0  0  0  0
  7 18  1  0  0  0  0
  8 18  1  0  0  0  0
  9 19  1  0  0  0  0
 10 19  1  0  0  0  0
 11 19  1  0  0  0  0
 12 15  1  0  0  0  0
 12 17  1  0  0  0  0
 13 20  1  0  0  0  0
 13 21  1  0  0  0  0
 14 20  2  0  0  0  0
 15 16  1  0  0  0  0
 16 18  1  0  0  0  0
 17 19  1  0  0  0  0
 17 20  1  0  0  0  0
M  END
> <PUBCHEM_COMPOUND_CID>
114481

> <PUBCHEM_COMPOUND_CANONICALIZED>
1

> <PUBCHEM_CACTVS_COMPLEXITY>
383

> <PUBCHEM_CACTVS_HBOND_ACCEPTOR>
14

> <PUBCHEM_CACTVS_HBOND_DONOR>
1

> <PUBCHEM_CACTVS_ROTATABLE_BOND>
4

> <PUBCHEM_CACTVS_SUBSKEYS>
AAADcQBgMcAAAAAAAAAAAAAAAAAAAAAAAAAAAAAAAAAAAAAAAAAACwAACAAACAQAgBAACAAABgAIAACQCAIAAAAAAAAAAAFAAAABAAAAAAQCQAAAAAADAAAAAAAAAAAAAAAAAAAAAAAAAAAAAAAAAAAAAA==

> <PUBCHEM_IUPAC_OPENEYE_NAME>
2,3,3,3-tetrafluoro-2-(1,1,2,2,3,3,3-heptafluoropropoxy)propanoic acid

> <PUBCHEM_IUPAC_CAS_NAME>
2,3,3,3-tetrafluoro-2-(1,1,2,2,3,3,3-heptafluoropropoxy)propanoic acid

> <PUBCHEM_IUPAC_NAME_MARKUP>
2,3,3,3-tetrafluoro-2-(1,1,2,2,3,3,3-heptafluoropropoxy)propanoic acid

> <PUBCHEM_IUPAC_NAME>
2,3,3,3-tetrafluoro-2-(1,1,2,2,3,3,3-heptafluoropropoxy)propanoic acid

> <PUBCHEM_IUPAC_SYSTEMATIC_NAME>
2,3,3,3-tetrakis(fluoranyl)-2-[1,1,2,2,3,3,3-heptakis(fluoranyl)propoxy]propanoic acid

> <PUBCHEM_IUPAC_TRADITIONAL_NAME>
2,3,3,3-tetrafluoro-2-(1,1,2,2,3,3,3-heptafluoropropoxy)propionic acid

> <PUBCHEM_IUPAC_INCHI>
InChI=1S/C6HF11O3/c7-2(1(18)19,4(10,11)12)20-6(16,17)3(8,9)5(13,14)15/h(H,18,19)

> <PUBCHEM_IUPAC_INCHIKEY>
CSEBNABAWMZWIF-UHFFFAOYSA-N

> <PUBCHEM_XLOGP3_AA>
3.6

> <PUBCHEM_EXACT_MASS>
329.97500367

> <PUBCHEM_MOLECULAR_FORMULA>
C6HF11O3

> <PUBCHEM_MOLECULAR_WEIGHT>
330.05

> <PUBCHEM_SMILES>
C(=O)(C(C(F)(F)F)(OC(C(C(F)(F)F)(F)F)(F)F)F)O

> <PUBCHEM_OPENEYE_CAN_SMILES>
C(=O)(C(C(F)(F)F)(OC(C(C(F)(F)F)(F)F)(F)F)F)O

> <PUBCHEM_OPENEYE_ISO_SMILES>
C(=O)(C(C(F)(F)F)(OC(C(C(F)(F)F)(F)F)(F)F)F)O

> <PUBCHEM_CACTVS_TPSA>
46.5

> <PUBCHEM_MONOISOTOPIC_WEIGHT>
329.97500367

> <PUBCHEM_TOTAL_CHARGE>
0

> <PUBCHEM_HEAVY_ATOM_COUNT>
20

> <PUBCHEM_ATOM_DEF_STEREO_COUNT>
0

> <PUBCHEM_ATOM_UDEF_STEREO_COUNT>
1

> <PUBCHEM_BOND_DEF_STEREO_COUNT>
0

> <PUBCHEM_BOND_UDEF_STEREO_COUNT>
0

> <PUBCHEM_ISOTOPIC_ATOM_COUNT>
0

> <PUBCHEM_COMPONENT_COUNT>
1

> <PUBCHEM_CACTVS_TAUTO_COUNT>
-1

> <PUBCHEM_COORDINATE_TYPE>
1
5
255

> <PUBCHEM_BONDANNOTATIONS>
17  5  3

$$$$
