114658
  -OEChem-04042505432D

 39 38  0     0  0  0  0  0  0999 V2000
    8.5991   -0.0600    0.0000 S   0  0  0  0  0  0  0  0  0  0  0  0
   11.1972    0.4400    0.0000 O   0  0  0  0  0  0  0  0  0  0  0  0
    6.0010    0.4400    0.0000 O   0  0  0  0  0  0  0  0  0  0  0  0
   12.0632   -1.0600    0.0000 O   0  0  0  0  0  0  0  0  0  0  0  0
    5.1350   -1.0600    0.0000 O   0  0  0  0  0  0  0  0  0  0  0  0
   14.6613    0.4400    0.0000 N   0  0  0  0  0  0  0  0  0  0  0  0
    2.5369    0.4400    0.0000 N   0  0  0  0  0  0  0  0  0  0  0  0
    9.4651    0.4400    0.0000 C   0  0  0  0  0  0  0  0  0  0  0  0
    7.7331    0.4400    0.0000 C   0  0  0  0  0  0  0  0  0  0  0  0
   10.3312   -0.0600    0.0000 C   0  0  0  0  0  0  0  0  0  0  0  0
    6.8671   -0.0600    0.0000 C   0  0  0  0  0  0  0  0  0  0  0  0
   12.0632   -0.0600    0.0000 C   0  0  0  0  0  0  0  0  0  0  0  0
    5.1350   -0.0600    0.0000 C   0  0  0  0  0  0  0  0  0  0  0  0
   12.9292    0.4400    0.0000 C   0  0  0  0  0  0  0  0  0  0  0  0
    4.2690    0.4400    0.0000 C   0  0  0  0  0  0  0  0  0  0  0  0
   13.7953   -0.0600    0.0000 C   0  0  0  0  0  0  0  0  0  0  0  0
    3.4030   -0.0600    0.0000 C   0  0  0  0  0  0  0  0  0  0  0  0
   13.7953   -1.0600    0.0000 C   0  0  0  0  0  0  0  0  0  0  0  0
    3.4030   -1.0600    0.0000 C   0  0  0  0  0  0  0  0  0  0  0  0
    9.8637    0.9149    0.0000 H   0  0  0  0  0  0  0  0  0  0  0  0
    9.0666    0.9149    0.0000 H   0  0  0  0  0  0  0  0  0  0  0  0
    8.1316    0.9149    0.0000 H   0  0  0  0  0  0  0  0  0  0  0  0
    7.3346    0.9149    0.0000 H   0  0  0  0  0  0  0  0  0  0  0  0
    9.9326   -0.5349    0.0000 H   0  0  0  0  0  0  0  0  0  0  0  0
   10.7297   -0.5349    0.0000 H   0  0  0  0  0  0  0  0  0  0  0  0
    6.4685   -0.5349    0.0000 H   0  0  0  0  0  0  0  0  0  0  0  0
    7.2656   -0.5349    0.0000 H   0  0  0  0  0  0  0  0  0  0  0  0
   12.9292    1.0600    0.0000 H   0  0  0  0  0  0  0  0  0  0  0  0
    4.2690    1.0600    0.0000 H   0  0  0  0  0  0  0  0  0  0  0  0
   13.1753   -1.0600    0.0000 H   0  0  0  0  0  0  0  0  0  0  0  0
   13.7953   -1.6800    0.0000 H   0  0  0  0  0  0  0  0  0  0  0  0
   14.4153   -1.0600    0.0000 H   0  0  0  0  0  0  0  0  0  0  0  0
    2.7830   -1.0600    0.0000 H   0  0  0  0  0  0  0  0  0  0  0  0
    3.4030   -1.6800    0.0000 H   0  0  0  0  0  0  0  0  0  0  0  0
    4.0230   -1.0600    0.0000 H   0  0  0  0  0  0  0  0  0  0  0  0
   15.1982    0.1300    0.0000 H   0  0  0  0  0  0  0  0  0  0  0  0
   14.6613    1.0600    0.0000 H   0  0  0  0  0  0  0  0  0  0  0  0
    2.0000    0.1300    0.0000 H   0  0  0  0  0  0  0  0  0  0  0  0
    2.5369    1.0600    0.0000 H   0  0  0  0  0  0  0  0  0  0  0  0
  1  8  1  0  0  0  0
  1  9  1  0  0  0  0
  2 10  1  0  0  0  0
  2 12  1  0  0  0  0
  3 11  1  0  0  0  0
  3 13  1  0  0  0  0
  4 12  2  0  0  0  0
  5 13  2  0  0  0  0
  6 16  1  0  0  0  0
  6 36  1  0  0  0  0
  6 37  1  0  0  0  0
  7 17  1  0  0  0  0
  7 38  1  0  0  0  0
  7 39  1  0  0  0  0
  8 10  1  0  0  0  0
  8 20  1  0  0  0  0
  8 21  1  0  0  0  0
  9 11  1  0  0  0  0
  9 22  1  0  0  0  0
  9 23  1  0  0  0  0
 10 24  1  0  0  0  0
 10 25  1  0  0  0  0
 11 26  1  0  0  0  0
 11 27  1  0  0  0  0
 12 14  1  0  0  0  0
 13 15  1  0  0  0  0
 14 16  2  3  0  0  0
 14 28  1  0  0  0  0
 15 17  2  3  0  0  0
 15 29  1  0  0  0  0
 16 18  1  0  0  0  0
 17 19  1  0  0  0  0
 18 30  1  0  0  0  0
 18 31  1  0  0  0  0
 18 32  1  0  0  0  0
 19 33  1  0  0  0  0
 19 34  1  0  0  0  0
 19 35  1  0  0  0  0
M  END
> <PUBCHEM_COMPOUND_CID>
114658

> <PUBCHEM_COMPOUND_CANONICALIZED>
1

> <PUBCHEM_CACTVS_COMPLEXITY>
333

> <PUBCHEM_CACTVS_HBOND_ACCEPTOR>
7

> <PUBCHEM_CACTVS_HBOND_DONOR>
2

> <PUBCHEM_CACTVS_ROTATABLE_BOND>
10

> <PUBCHEM_CACTVS_SUBSKEYS>
AAADceBzOABAAAAAAAAAAAAAAAAAAAAAAAAAAAAAAAAAAAAAAAAAHgQQAAAACAilwAKCCABABAiIACTSSAAAAAAAAhAACAAAAEAABAAAIQACEAAAEAAgIUAAAAAAAAAAAAAAAAAAAAAAAAAAAAAAAAAAAA==

> <PUBCHEM_IUPAC_OPENEYE_NAME>
2-[2-(3-aminobut-2-enoyloxy)ethylsulfanyl]ethyl 3-aminobut-2-enoate

> <PUBCHEM_IUPAC_CAS_NAME>
3-amino-2-butenoic acid 2-[2-(3-amino-1-oxobut-2-enoxy)ethylthio]ethyl ester

> <PUBCHEM_IUPAC_NAME_MARKUP>
2-[2-(3-aminobut-2-enoyloxy)ethylsulfanyl]ethyl 3-aminobut-2-enoate

> <PUBCHEM_IUPAC_NAME>
2-[2-(3-aminobut-2-enoyloxy)ethylsulfanyl]ethyl 3-aminobut-2-enoate

> <PUBCHEM_IUPAC_SYSTEMATIC_NAME>
2-[2-(3-azanylbut-2-enoyloxy)ethylsulfanyl]ethyl 3-azanylbut-2-enoate

> <PUBCHEM_IUPAC_TRADITIONAL_NAME>
3-aminobut-2-enoic acid 2-[2-(3-aminobut-2-enoyloxy)ethylthio]ethyl ester

> <PUBCHEM_IUPAC_INCHI>
InChI=1S/C12H20N2O4S/c1-9(13)7-11(15)17-3-5-19-6-4-18-12(16)8-10(2)14/h7-8H,3-6,13-14H2,1-2H3

> <PUBCHEM_IUPAC_INCHIKEY>
GZVBGWRBVGVPLI-UHFFFAOYSA-N

> <PUBCHEM_XLOGP3_AA>
1.6

> <PUBCHEM_EXACT_MASS>
288.11437830

> <PUBCHEM_MOLECULAR_FORMULA>
C12H20N2O4S

> <PUBCHEM_MOLECULAR_WEIGHT>
288.37

> <PUBCHEM_SMILES>
CC(=CC(=O)OCCSCCOC(=O)C=C(C)N)N

> <PUBCHEM_OPENEYE_CAN_SMILES>
CC(=CC(=O)OCCSCCOC(=O)C=C(C)N)N

> <PUBCHEM_OPENEYE_ISO_SMILES>
CC(=CC(=O)OCCSCCOC(=O)C=C(C)N)N

> <PUBCHEM_CACTVS_TPSA>
130

> <PUBCHEM_MONOISOTOPIC_WEIGHT>
288.11437830

> <PUBCHEM_TOTAL_CHARGE>
0

> <PUBCHEM_HEAVY_ATOM_COUNT>
19

> <PUBCHEM_ATOM_DEF_STEREO_COUNT>
0

> <PUBCHEM_ATOM_UDEF_STEREO_COUNT>
0

> <PUBCHEM_BOND_DEF_STEREO_COUNT>
0

> <PUBCHEM_BOND_UDEF_STEREO_COUNT>
2

> <PUBCHEM_ISOTOPIC_ATOM_COUNT>
0

> <PUBCHEM_COMPONENT_COUNT>
1

> <PUBCHEM_CACTVS_TAUTO_COUNT>
-1

> <PUBCHEM_COORDINATE_TYPE>
1
5
255

> <PUBCHEM_BONDANNOTATIONS>
14  16  1
15  17  1

$$$$
