118899
  -OEChem-04042505332D

 78 79  0     0  0  0  0  0  0999 V2000
    2.8660   -1.0670    0.0000 O   0  0  0  0  0  0  0  0  0  0  0  0
    6.3301   -1.0670    0.0000 O   0  0  0  0  0  0  0  0  0  0  0  0
    4.5981   -0.0670    0.0000 C   0  0  0  0  0  0  0  0  0  0  0  0
    4.5981   -1.0670    0.0000 C   0  0  0  0  0  0  0  0  0  0  0  0
    5.4641    0.4330    0.0000 C   0  0  0  0  0  0  0  0  0  0  0  0
    2.8660   -3.0670    0.0000 C   0  0  0  0  0  0  0  0  0  0  0  0
    8.0622   -0.0670    0.0000 C   0  0  0  0  0  0  0  0  0  0  0  0
    6.3301   -3.0670    0.0000 C   0  0  0  0  0  0  0  0  0  0  0  0
    6.3301    2.9330    0.0000 C   0  0  0  0  0  0  0  0  0  0  0  0
    3.7320   -2.5670    0.0000 C   0  0  0  0  0  0  0  0  0  0  0  0
    7.1962    0.4330    0.0000 C   0  0  0  0  0  0  0  0  0  0  0  0
    5.4641   -2.5670    0.0000 C   0  0  0  0  0  0  0  0  0  0  0  0
    6.3301    1.9330    0.0000 C   0  0  0  0  0  0  0  0  0  0  0  0
    3.7320   -1.5670    0.0000 C   0  0  0  0  0  0  0  0  0  0  0  0
    6.3301   -0.0670    0.0000 C   0  0  0  0  0  0  0  0  0  0  0  0
    5.4641   -1.5670    0.0000 C   0  0  0  0  0  0  0  0  0  0  0  0
    5.4641    1.4330    0.0000 C   0  0  0  0  0  0  0  0  0  0  0  0
    4.5981   -3.0670    0.0000 C   0  0  0  0  0  0  0  0  0  0  0  0
    7.1962    1.4330    0.0000 C   0  0  0  0  0  0  0  0  0  0  0  0
    3.7320    0.4330    0.0000 C   0  0  0  0  0  0  0  0  0  0  0  0
    2.0000   -3.5670    0.0000 C   0  0  0  0  0  0  0  0  0  0  0  0
    3.3660   -3.9330    0.0000 C   0  0  0  0  0  0  0  0  0  0  0  0
    2.3660   -2.2010    0.0000 C   0  0  0  0  0  0  0  0  0  0  0  0
    8.9282   -0.5670    0.0000 C   0  0  0  0  0  0  0  0  0  0  0  0
    8.5622    0.7990    0.0000 C   0  0  0  0  0  0  0  0  0  0  0  0
    7.5622   -0.9330    0.0000 C   0  0  0  0  0  0  0  0  0  0  0  0
    7.1962   -3.5670    0.0000 C   0  0  0  0  0  0  0  0  0  0  0  0
    5.8301   -3.9330    0.0000 C   0  0  0  0  0  0  0  0  0  0  0  0
    6.8301   -2.2010    0.0000 C   0  0  0  0  0  0  0  0  0  0  0  0
    6.3301    3.9330    0.0000 C   0  0  0  0  0  0  0  0  0  0  0  0
    7.3301    2.9330    0.0000 C   0  0  0  0  0  0  0  0  0  0  0  0
    5.3301    2.9330    0.0000 C   0  0  0  0  0  0  0  0  0  0  0  0
    4.5981    0.5530    0.0000 H   0  0  0  0  0  0  0  0  0  0  0  0
    6.0010   -1.2570    0.0000 H   0  0  0  0  0  0  0  0  0  0  0  0
    4.9272    1.7430    0.0000 H   0  0  0  0  0  0  0  0  0  0  0  0
    4.5981   -3.6870    0.0000 H   0  0  0  0  0  0  0  0  0  0  0  0
    7.7331    1.7430    0.0000 H   0  0  0  0  0  0  0  0  0  0  0  0
    4.0420    0.9699    0.0000 H   0  0  0  0  0  0  0  0  0  0  0  0
    3.1951    0.7430    0.0000 H   0  0  0  0  0  0  0  0  0  0  0  0
    3.4220   -0.1039    0.0000 H   0  0  0  0  0  0  0  0  0  0  0  0
    1.6900   -3.0300    0.0000 H   0  0  0  0  0  0  0  0  0  0  0  0
    1.4631   -3.8770    0.0000 H   0  0  0  0  0  0  0  0  0  0  0  0
    2.3100   -4.1039    0.0000 H   0  0  0  0  0  0  0  0  0  0  0  0
    2.8291   -4.2430    0.0000 H   0  0  0  0  0  0  0  0  0  0  0  0
    3.6760   -4.4700    0.0000 H   0  0  0  0  0  0  0  0  0  0  0  0
    3.9030   -3.6230    0.0000 H   0  0  0  0  0  0  0  0  0  0  0  0
    2.9030   -1.8910    0.0000 H   0  0  0  0  0  0  0  0  0  0  0  0
    2.0560   -1.6640    0.0000 H   0  0  0  0  0  0  0  0  0  0  0  0
    1.8291   -2.5110    0.0000 H   0  0  0  0  0  0  0  0  0  0  0  0
    8.6182   -1.1039    0.0000 H   0  0  0  0  0  0  0  0  0  0  0  0
    9.4651   -0.8770    0.0000 H   0  0  0  0  0  0  0  0  0  0  0  0
    9.2382   -0.0301    0.0000 H   0  0  0  0  0  0  0  0  0  0  0  0
    9.0991    0.4890    0.0000 H   0  0  0  0  0  0  0  0  0  0  0  0
    8.8722    1.3360    0.0000 H   0  0  0  0  0  0  0  0  0  0  0  0
    8.0252    1.1090    0.0000 H   0  0  0  0  0  0  0  0  0  0  0  0
    7.0252   -0.6230    0.0000 H   0  0  0  0  0  0  0  0  0  0  0  0
    7.2522   -1.4700    0.0000 H   0  0  0  0  0  0  0  0  0  0  0  0
    8.0991   -1.2430    0.0000 H   0  0  0  0  0  0  0  0  0  0  0  0
    6.8862   -4.1039    0.0000 H   0  0  0  0  0  0  0  0  0  0  0  0
    7.7331   -3.8770    0.0000 H   0  0  0  0  0  0  0  0  0  0  0  0
    7.5062   -3.0300    0.0000 H   0  0  0  0  0  0  0  0  0  0  0  0
    5.2932   -3.6230    0.0000 H   0  0  0  0  0  0  0  0  0  0  0  0
    5.5201   -4.4700    0.0000 H   0  0  0  0  0  0  0  0  0  0  0  0
    6.3671   -4.2430    0.0000 H   0  0  0  0  0  0  0  0  0  0  0  0
    7.3671   -2.5110    0.0000 H   0  0  0  0  0  0  0  0  0  0  0  0
    7.1401   -1.6640    0.0000 H   0  0  0  0  0  0  0  0  0  0  0  0
    6.2932   -1.8910    0.0000 H   0  0  0  0  0  0  0  0  0  0  0  0
    6.9501    3.9330    0.0000 H   0  0  0  0  0  0  0  0  0  0  0  0
    6.3301    4.5530    0.0000 H   0  0  0  0  0  0  0  0  0  0  0  0
    5.7101    3.9330    0.0000 H   0  0  0  0  0  0  0  0  0  0  0  0
    7.3301    2.3130    0.0000 H   0  0  0  0  0  0  0  0  0  0  0  0
    7.9501    2.9330    0.0000 H   0  0  0  0  0  0  0  0  0  0  0  0
    7.3301    3.5530    0.0000 H   0  0  0  0  0  0  0  0  0  0  0  0
    5.3301    3.5530    0.0000 H   0  0  0  0  0  0  0  0  0  0  0  0
    4.7101    2.9330    0.0000 H   0  0  0  0  0  0  0  0  0  0  0  0
    5.3301    2.3130    0.0000 H   0  0  0  0  0  0  0  0  0  0  0  0
    2.8660   -0.4470    0.0000 H   0  0  0  0  0  0  0  0  0  0  0  0
    6.8671   -1.3770    0.0000 H   0  0  0  0  0  0  0  0  0  0  0  0
  1 14  1  0  0  0  0
  1 77  1  0  0  0  0
  2 15  1  0  0  0  0
  2 78  1  0  0  0  0
  3  4  1  0  0  0  0
  3  5  1  0  0  0  0
  3 20  1  0  0  0  0
  3 33  1  0  0  0  0
  4 14  2  0  0  0  0
  4 16  1  0  0  0  0
  5 15  2  0  0  0  0
  5 17  1  0  0  0  0
  6 10  1  0  0  0  0
  6 21  1  0  0  0  0
  6 22  1  0  0  0  0
  6 23  1  0  0  0  0
  7 11  1  0  0  0  0
  7 24  1  0  0  0  0
  7 25  1  0  0  0  0
  7 26  1  0  0  0  0
  8 12  1  0  0  0  0
  8 27  1  0  0  0  0
  8 28  1  0  0  0  0
  8 29  1  0  0  0  0
  9 13  1  0  0  0  0
  9 30  1  0  0  0  0
  9 31  1  0  0  0  0
  9 32  1  0  0  0  0
 10 14  1  0  0  0  0
 10 18  2  0  0  0  0
 11 15  1  0  0  0  0
 11 19  2  0  0  0  0
 12 16  2  0  0  0  0
 12 18  1  0  0  0  0
 13 17  2  0  0  0  0
 13 19  1  0  0  0  0
 16 34  1  0  0  0  0
 17 35  1  0  0  0  0
 18 36  1  0  0  0  0
 19 37  1  0  0  0  0
 20 38  1  0  0  0  0
 20 39  1  0  0  0  0
 20 40  1  0  0  0  0
 21 41  1  0  0  0  0
 21 42  1  0  0  0  0
 21 43  1  0  0  0  0
 22 44  1  0  0  0  0
 22 45  1  0  0  0  0
 22 46  1  0  0  0  0
 23 47  1  0  0  0  0
 23 48  1  0  0  0  0
 23 49  1  0  0  0  0
 24 50  1  0  0  0  0
 24 51  1  0  0  0  0
 24 52  1  0  0  0  0
 25 53  1  0  0  0  0
 25 54  1  0  0  0  0
 25 55  1  0  0  0  0
 26 56  1  0  0  0  0
 26 57  1  0  0  0  0
 26 58  1  0  0  0  0
 27 59  1  0  0  0  0
 27 60  1  0  0  0  0
 27 61  1  0  0  0  0
 28 62  1  0  0  0  0
 28 63  1  0  0  0  0
 28 64  1  0  0  0  0
 29 65  1  0  0  0  0
 29 66  1  0  0  0  0
 29 67  1  0  0  0  0
 30 68  1  0  0  0  0
 30 69  1  0  0  0  0
 30 70  1  0  0  0  0
 31 71  1  0  0  0  0
 31 72  1  0  0  0  0
 31 73  1  0  0  0  0
 32 74  1  0  0  0  0
 32 75  1  0  0  0  0
 32 76  1  0  0  0  0
M  END
> <PUBCHEM_COMPOUND_CID>
118899

> <PUBCHEM_COMPOUND_CANONICALIZED>
1

> <PUBCHEM_CACTVS_COMPLEXITY>
555

> <PUBCHEM_CACTVS_HBOND_ACCEPTOR>
2

> <PUBCHEM_CACTVS_HBOND_DONOR>
2

> <PUBCHEM_CACTVS_ROTATABLE_BOND>
6

> <PUBCHEM_CACTVS_SUBSKEYS>
AAADcfB4MAAAAAAAAAAAAAAAAAAAAAAAAAAwYAAAAAAAAAABQAAAGgAACAAADwSAmAAyBoAAAgCAAiBCAAACAAAgIAAAiAAECIgIJiKCERKAcAAkwBEImAeA4PQPoAACAAAIAABAAAQAABAAAAAAAAAAAA==

> <PUBCHEM_IUPAC_OPENEYE_NAME>
2,4-ditert-butyl-6-[1-(3,5-ditert-butyl-2-hydroxy-phenyl)ethyl]phenol

> <PUBCHEM_IUPAC_CAS_NAME>
2,4-ditert-butyl-6-[1-(3,5-ditert-butyl-2-hydroxyphenyl)ethyl]phenol

> <PUBCHEM_IUPAC_NAME_MARKUP>
2,4-di<I>tert</I>-butyl-6-[1-(3,5-di<I>tert</I>-butyl-2-hydroxyphenyl)ethyl]phenol

> <PUBCHEM_IUPAC_NAME>
2,4-ditert-butyl-6-[1-(3,5-ditert-butyl-2-hydroxyphenyl)ethyl]phenol

> <PUBCHEM_IUPAC_SYSTEMATIC_NAME>
2,4-ditert-butyl-6-[1-(3,5-ditert-butyl-2-oxidanyl-phenyl)ethyl]phenol

> <PUBCHEM_IUPAC_TRADITIONAL_NAME>
2,4-ditert-butyl-6-[1-(3,5-ditert-butyl-2-hydroxy-phenyl)ethyl]phenol

> <PUBCHEM_IUPAC_INCHI>
InChI=1S/C30H46O2/c1-18(21-14-19(27(2,3)4)16-23(25(21)31)29(8,9)10)22-15-20(28(5,6)7)17-24(26(22)32)30(11,12)13/h14-18,31-32H,1-13H3

> <PUBCHEM_IUPAC_INCHIKEY>
DXCHWXWXYPEZKM-UHFFFAOYSA-N

> <PUBCHEM_XLOGP3_AA>
10.1

> <PUBCHEM_EXACT_MASS>
438.349780706

> <PUBCHEM_MOLECULAR_FORMULA>
C30H46O2

> <PUBCHEM_MOLECULAR_WEIGHT>
438.7

> <PUBCHEM_SMILES>
CC(C1=C(C(=CC(=C1)C(C)(C)C)C(C)(C)C)O)C2=C(C(=CC(=C2)C(C)(C)C)C(C)(C)C)O

> <PUBCHEM_OPENEYE_CAN_SMILES>
CC(C1=C(C(=CC(=C1)C(C)(C)C)C(C)(C)C)O)C2=C(C(=CC(=C2)C(C)(C)C)C(C)(C)C)O

> <PUBCHEM_OPENEYE_ISO_SMILES>
CC(C1=C(C(=CC(=C1)C(C)(C)C)C(C)(C)C)O)C2=C(C(=CC(=C2)C(C)(C)C)C(C)(C)C)O

> <PUBCHEM_CACTVS_TPSA>
40.5

> <PUBCHEM_MONOISOTOPIC_WEIGHT>
438.349780706

> <PUBCHEM_TOTAL_CHARGE>
0

> <PUBCHEM_HEAVY_ATOM_COUNT>
32

> <PUBCHEM_ATOM_DEF_STEREO_COUNT>
0

> <PUBCHEM_ATOM_UDEF_STEREO_COUNT>
0

> <PUBCHEM_BOND_DEF_STEREO_COUNT>
0

> <PUBCHEM_BOND_UDEF_STEREO_COUNT>
0

> <PUBCHEM_ISOTOPIC_ATOM_COUNT>
0

> <PUBCHEM_COMPONENT_COUNT>
1

> <PUBCHEM_CACTVS_TAUTO_COUNT>
-1

> <PUBCHEM_COORDINATE_TYPE>
1
5
255

> <PUBCHEM_BONDANNOTATIONS>
10  14  8
10  18  8
11  15  8
11  19  8
12  16  8
12  18  8
13  17  8
13  19  8
4  14  8
4  16  8
5  15  8
5  17  8

$$$$
