11970398
  -OEChem-04042512282D

 44 41  0     0  0  0  0  0  0999 V2000
    2.0000   -0.4330    0.0000 K   0  3  0  0  0  0  0  0  0  0  0  0
    3.7320    1.2990    0.0000 K   0  3  0  0  0  0  0  0  0  0  0  0
    3.7320   -0.4330    0.0000 P   0  0  0  0  0  0  0  0  0  0  0  0
    4.5981    0.0670    0.0000 O   0  0  0  0  0  0  0  0  0  0  0  0
    2.8660   -0.9330    0.0000 O   0  5  0  0  0  0  0  0  0  0  0  0
    3.2320    0.4330    0.0000 O   0  5  0  0  0  0  0  0  0  0  0  0
    4.2320   -1.2990    0.0000 O   0  0  0  0  0  0  0  0  0  0  0  0
    9.7942    0.0670    0.0000 C   0  0  0  0  0  0  0  0  0  0  0  0
   10.6603   -0.4330    0.0000 C   0  0  0  0  0  0  0  0  0  0  0  0
    8.9282   -0.4330    0.0000 C   0  0  0  0  0  0  0  0  0  0  0  0
   11.5263    0.0670    0.0000 C   0  0  0  0  0  0  0  0  0  0  0  0
    8.0622    0.0670    0.0000 C   0  0  0  0  0  0  0  0  0  0  0  0
   12.3923   -0.4330    0.0000 C   0  0  0  0  0  0  0  0  0  0  0  0
    7.1962   -0.4330    0.0000 C   0  0  0  0  0  0  0  0  0  0  0  0
   13.2583    0.0670    0.0000 C   0  0  0  0  0  0  0  0  0  0  0  0
    6.3301    0.0670    0.0000 C   0  0  0  0  0  0  0  0  0  0  0  0
   14.1244   -0.4330    0.0000 C   0  0  0  0  0  0  0  0  0  0  0  0
    5.4641   -0.4330    0.0000 C   0  0  0  0  0  0  0  0  0  0  0  0
   14.9904    0.0670    0.0000 C   0  0  0  0  0  0  0  0  0  0  0  0
   10.1928    0.5419    0.0000 H   0  0  0  0  0  0  0  0  0  0  0  0
    9.3957    0.5419    0.0000 H   0  0  0  0  0  0  0  0  0  0  0  0
   10.2617   -0.9080    0.0000 H   0  0  0  0  0  0  0  0  0  0  0  0
   11.0588   -0.9080    0.0000 H   0  0  0  0  0  0  0  0  0  0  0  0
    8.5297   -0.9080    0.0000 H   0  0  0  0  0  0  0  0  0  0  0  0
    9.3267   -0.9080    0.0000 H   0  0  0  0  0  0  0  0  0  0  0  0
   11.9248    0.5419    0.0000 H   0  0  0  0  0  0  0  0  0  0  0  0
   11.1278    0.5419    0.0000 H   0  0  0  0  0  0  0  0  0  0  0  0
    8.4607    0.5419    0.0000 H   0  0  0  0  0  0  0  0  0  0  0  0
    7.6636    0.5419    0.0000 H   0  0  0  0  0  0  0  0  0  0  0  0
   11.9938   -0.9080    0.0000 H   0  0  0  0  0  0  0  0  0  0  0  0
   12.7908   -0.9080    0.0000 H   0  0  0  0  0  0  0  0  0  0  0  0
    6.7976   -0.9080    0.0000 H   0  0  0  0  0  0  0  0  0  0  0  0
    7.5947   -0.9080    0.0000 H   0  0  0  0  0  0  0  0  0  0  0  0
   13.6569    0.5419    0.0000 H   0  0  0  0  0  0  0  0  0  0  0  0
   12.8598    0.5419    0.0000 H   0  0  0  0  0  0  0  0  0  0  0  0
    6.7287    0.5419    0.0000 H   0  0  0  0  0  0  0  0  0  0  0  0
    5.9316    0.5419    0.0000 H   0  0  0  0  0  0  0  0  0  0  0  0
   13.7258   -0.9080    0.0000 H   0  0  0  0  0  0  0  0  0  0  0  0
   14.5229   -0.9080    0.0000 H   0  0  0  0  0  0  0  0  0  0  0  0
    5.0656   -0.9080    0.0000 H   0  0  0  0  0  0  0  0  0  0  0  0
    5.8626   -0.9080    0.0000 H   0  0  0  0  0  0  0  0  0  0  0  0
   15.3004   -0.4699    0.0000 H   0  0  0  0  0  0  0  0  0  0  0  0
   15.5273    0.3770    0.0000 H   0  0  0  0  0  0  0  0  0  0  0  0
   14.6804    0.6039    0.0000 H   0  0  0  0  0  0  0  0  0  0  0  0
  3  4  1  0  0  0  0
  3  5  1  0  0  0  0
  3  6  1  0  0  0  0
  3  7  2  0  0  0  0
  4 18  1  0  0  0  0
  8  9  1  0  0  0  0
  8 10  1  0  0  0  0
  8 20  1  0  0  0  0
  8 21  1  0  0  0  0
  9 11  1  0  0  0  0
  9 22  1  0  0  0  0
  9 23  1  0  0  0  0
 10 12  1  0  0  0  0
 10 24  1  0  0  0  0
 10 25  1  0  0  0  0
 11 13  1  0  0  0  0
 11 26  1  0  0  0  0
 11 27  1  0  0  0  0
 12 14  1  0  0  0  0
 12 28  1  0  0  0  0
 12 29  1  0  0  0  0
 13 15  1  0  0  0  0
 13 30  1  0  0  0  0
 13 31  1  0  0  0  0
 14 16  1  0  0  0  0
 14 32  1  0  0  0  0
 14 33  1  0  0  0  0
 15 17  1  0  0  0  0
 15 34  1  0  0  0  0
 15 35  1  0  0  0  0
 16 18  1  0  0  0  0
 16 36  1  0  0  0  0
 16 37  1  0  0  0  0
 17 19  1  0  0  0  0
 17 38  1  0  0  0  0
 17 39  1  0  0  0  0
 18 40  1  0  0  0  0
 18 41  1  0  0  0  0
 19 42  1  0  0  0  0
 19 43  1  0  0  0  0
 19 44  1  0  0  0  0
M  CHG  4   1   1   2   1   5  -1   6  -1
M  END
> <PUBCHEM_COMPOUND_CID>
11970398

> <PUBCHEM_COMPOUND_CANONICALIZED>
1

> <PUBCHEM_CACTVS_COMPLEXITY>
191

> <PUBCHEM_CACTVS_HBOND_ACCEPTOR>
4

> <PUBCHEM_CACTVS_HBOND_DONOR>
0

> <PUBCHEM_CACTVS_ROTATABLE_BOND>
11

> <PUBCHEM_CACTVS_SUBSKEYS>
AAADceBwOAIAYAAAAAAAAAAAAAAAAAAAAAAAAAAAAAAAAAAAAAAAGgAAACAACACggAICAAAAARAAQAAAAIAAAAAAAAAAAAAAAAAAAAIAAAAAAAAEAAAAAAGAwKAAAAAAAAAAAAAAAAAAAAAAAAAAAAAAAA==

> <PUBCHEM_IUPAC_OPENEYE_NAME>
dipotassium;dodecyl phosphate

> <PUBCHEM_IUPAC_CAS_NAME>
dipotassium;dodecyl phosphate

> <PUBCHEM_IUPAC_NAME_MARKUP>
dipotassium;dodecyl phosphate

> <PUBCHEM_IUPAC_NAME>
dipotassium;dodecyl phosphate

> <PUBCHEM_IUPAC_SYSTEMATIC_NAME>
dipotassium;dodecyl phosphate

> <PUBCHEM_IUPAC_TRADITIONAL_NAME>
dipotassium;lauryl phosphate

> <PUBCHEM_IUPAC_INCHI>
InChI=1S/C12H27O4P.2K/c1-2-3-4-5-6-7-8-9-10-11-12-16-17(13,14)15;;/h2-12H2,1H3,(H2,13,14,15);;/q;2*+1/p-2

> <PUBCHEM_IUPAC_INCHIKEY>
GWTCIAGIKURVBJ-UHFFFAOYSA-L

> <PUBCHEM_EXACT_MASS>
342.07645924

> <PUBCHEM_MOLECULAR_FORMULA>
C12H25K2O4P

> <PUBCHEM_MOLECULAR_WEIGHT>
342.49

> <PUBCHEM_SMILES>
CCCCCCCCCCCCOP(=O)([O-])[O-].[K+].[K+]

> <PUBCHEM_OPENEYE_CAN_SMILES>
CCCCCCCCCCCCOP(=O)([O-])[O-].[K+].[K+]

> <PUBCHEM_OPENEYE_ISO_SMILES>
CCCCCCCCCCCCOP(=O)([O-])[O-].[K+].[K+]

> <PUBCHEM_CACTVS_TPSA>
72.4

> <PUBCHEM_MONOISOTOPIC_WEIGHT>
342.07645924

> <PUBCHEM_TOTAL_CHARGE>
0

> <PUBCHEM_HEAVY_ATOM_COUNT>
19

> <PUBCHEM_ATOM_DEF_STEREO_COUNT>
0

> <PUBCHEM_ATOM_UDEF_STEREO_COUNT>
0

> <PUBCHEM_BOND_DEF_STEREO_COUNT>
0

> <PUBCHEM_BOND_UDEF_STEREO_COUNT>
0

> <PUBCHEM_ISOTOPIC_ATOM_COUNT>
0

> <PUBCHEM_COMPONENT_COUNT>
3

> <PUBCHEM_CACTVS_TAUTO_COUNT>
-1

> <PUBCHEM_COORDINATE_TYPE>
1
5
255

$$$$
