11980975
  -OEChem-04042512462D

129138  0     0  0  0  0  0  0999 V2000
    4.0552    3.6684    0.0000 Ru  0  2  0  0  0  0  0  0  0  0  0  0
    4.9212    4.1684    0.0000 Cl  0  5  0  0  0  0  0  0  0  0  0  0
    3.1892    4.1684    0.0000 Cl  0  5  0  0  0  0  0  0  0  0  0  0
   13.3239    6.6959    0.0000 N   0  0  0  0  0  0  0  0  0  0  0  0
   11.5800    5.6891    0.0000 N   0  0  0  0  0  0  0  0  0  0  0  0
   13.3239   16.5674    0.0000 N   0  0  0  0  0  0  0  0  0  0  0  0
   11.5800   15.5605    0.0000 N   0  0  0  0  0  0  0  0  0  0  0  0
    1.4418   11.8921    0.0000 N   0  0  0  0  0  0  0  0  0  0  0  0
    3.1857   12.8990    0.0000 N   0  0  0  0  0  0  0  0  0  0  0  0
   14.2060    5.1544    0.0000 C   0  0  0  0  0  0  0  0  0  0  0  0
   12.4739    4.1544    0.0000 C   0  0  0  0  0  0  0  0  0  0  0  0
   14.2060   15.0258    0.0000 C   0  0  0  0  0  0  0  0  0  0  0  0
   12.4739   14.0258    0.0000 C   0  0  0  0  0  0  0  0  0  0  0  0
    2.3357   10.3575    0.0000 C   0  0  0  0  0  0  0  0  0  0  0  0
    4.0678   11.3575    0.0000 C   0  0  0  0  0  0  0  0  0  0  0  0
   13.3399    5.6544    0.0000 C   0  0  0  0  0  0  0  0  0  0  0  0
   12.4739    5.1544    0.0000 C   0  0  0  0  0  0  0  0  0  0  0  0
   13.3399   15.5258    0.0000 C   0  0  0  0  0  0  0  0  0  0  0  0
   12.4739   15.0258    0.0000 C   0  0  0  0  0  0  0  0  0  0  0  0
    2.3357   11.3575    0.0000 C   0  0  0  0  0  0  0  0  0  0  0  0
    3.2018   11.8575    0.0000 C   0  0  0  0  0  0  0  0  0  0  0  0
   15.1160    5.6613    0.0000 C   0  0  0  0  0  0  0  0  0  0  0  0
   11.5800    3.6198    0.0000 C   0  0  0  0  0  0  0  0  0  0  0  0
   15.1160   15.5327    0.0000 C   0  0  0  0  0  0  0  0  0  0  0  0
   11.5800   13.4912    0.0000 C   0  0  0  0  0  0  0  0  0  0  0  0
    1.4418    9.8228    0.0000 C   0  0  0  0  0  0  0  0  0  0  0  0
    4.9778   11.8643    0.0000 C   0  0  0  0  0  0  0  0  0  0  0  0
   14.2060    4.1544    0.0000 C   0  0  0  0  0  0  0  0  0  0  0  0
   13.3399    3.6544    0.0000 C   0  0  0  0  0  0  0  0  0  0  0  0
   14.2060   14.0258    0.0000 C   0  0  0  0  0  0  0  0  0  0  0  0
   13.3399   13.5258    0.0000 C   0  0  0  0  0  0  0  0  0  0  0  0
    3.2018    9.8575    0.0000 C   0  0  0  0  0  0  0  0  0  0  0  0
    4.0678   10.3575    0.0000 C   0  0  0  0  0  0  0  0  0  0  0  0
   15.9761    5.1513    0.0000 C   0  0  0  0  0  0  0  0  0  0  0  0
   11.5915    2.6198    0.0000 C   0  0  0  0  0  0  0  0  0  0  0  0
   15.9761   15.0227    0.0000 C   0  0  0  0  0  0  0  0  0  0  0  0
   11.5915   12.4913    0.0000 C   0  0  0  0  0  0  0  0  0  0  0  0
    1.4534    8.8229    0.0000 C   0  0  0  0  0  0  0  0  0  0  0  0
    5.8380   11.3543    0.0000 C   0  0  0  0  0  0  0  0  0  0  0  0
   15.1240    6.7029    0.0000 C   0  0  0  0  0  0  0  0  0  0  0  0
   10.6739    4.1336    0.0000 C   0  0  0  0  0  0  0  0  0  0  0  0
   15.1240   16.5743    0.0000 C   0  0  0  0  0  0  0  0  0  0  0  0
   10.6739   14.0050    0.0000 C   0  0  0  0  0  0  0  0  0  0  0  0
    0.5357   10.3367    0.0000 C   0  0  0  0  0  0  0  0  0  0  0  0
    4.9858   12.9059    0.0000 C   0  0  0  0  0  0  0  0  0  0  0  0
   14.2219    7.2237    0.0000 C   0  0  0  0  0  0  0  0  0  0  0  0
   10.6739    5.1752    0.0000 C   0  0  0  0  0  0  0  0  0  0  0  0
   14.2219   17.0951    0.0000 C   0  0  0  0  0  0  0  0  0  0  0  0
   10.6739   15.0467    0.0000 C   0  0  0  0  0  0  0  0  0  0  0  0
    0.5357   11.3783    0.0000 C   0  0  0  0  0  0  0  0  0  0  0  0
    4.0838   13.4267    0.0000 C   0  0  0  0  0  0  0  0  0  0  0  0
   15.9646    4.1514    0.0000 C   0  0  0  0  0  0  0  0  0  0  0  0
   12.4633    2.1299    0.0000 C   0  0  0  0  0  0  0  0  0  0  0  0
   16.8479   15.5127    0.0000 C   0  0  0  0  0  0  0  0  0  0  0  0
   12.4633   12.0013    0.0000 C   0  0  0  0  0  0  0  0  0  0  0  0
    2.3251    8.3329    0.0000 C   0  0  0  0  0  0  0  0  0  0  0  0
    6.7097   11.8443    0.0000 C   0  0  0  0  0  0  0  0  0  0  0  0
   16.8479    5.6412    0.0000 C   0  0  0  0  0  0  0  0  0  0  0  0
   10.7313    2.1098    0.0000 C   0  0  0  0  0  0  0  0  0  0  0  0
   15.9646   14.0228    0.0000 C   0  0  0  0  0  0  0  0  0  0  0  0
   10.7313   11.9813    0.0000 C   0  0  0  0  0  0  0  0  0  0  0  0
    0.5932    8.3129    0.0000 C   0  0  0  0  0  0  0  0  0  0  0  0
    5.8264   10.3544    0.0000 C   0  0  0  0  0  0  0  0  0  0  0  0
   16.8248    3.6414    0.0000 C   0  0  0  0  0  0  0  0  0  0  0  0
   12.4748    1.1299    0.0000 C   0  0  0  0  0  0  0  0  0  0  0  0
   17.7081   15.0027    0.0000 C   0  0  0  0  0  0  0  0  0  0  0  0
   12.4748   11.0014    0.0000 C   0  0  0  0  0  0  0  0  0  0  0  0
    2.3367    7.3330    0.0000 C   0  0  0  0  0  0  0  0  0  0  0  0
    7.5699   11.3343    0.0000 C   0  0  0  0  0  0  0  0  0  0  0  0
   17.7081    5.1313    0.0000 C   0  0  0  0  0  0  0  0  0  0  0  0
   10.7429    1.1099    0.0000 C   0  0  0  0  0  0  0  0  0  0  0  0
   16.8248   13.5128    0.0000 C   0  0  0  0  0  0  0  0  0  0  0  0
   10.7429   10.9813    0.0000 C   0  0  0  0  0  0  0  0  0  0  0  0
    0.6047    7.3130    0.0000 C   0  0  0  0  0  0  0  0  0  0  0  0
    6.6866    9.8444    0.0000 C   0  0  0  0  0  0  0  0  0  0  0  0
   17.6965    4.1313    0.0000 C   0  0  0  0  0  0  0  0  0  0  0  0
   11.6147    0.6200    0.0000 C   0  0  0  0  0  0  0  0  0  0  0  0
   17.6965   14.0028    0.0000 C   0  0  0  0  0  0  0  0  0  0  0  0
   11.6147   10.4914    0.0000 C   0  0  0  0  0  0  0  0  0  0  0  0
    1.4765    6.8230    0.0000 C   0  0  0  0  0  0  0  0  0  0  0  0
    7.5584   10.3344    0.0000 C   0  0  0  0  0  0  0  0  0  0  0  0
   14.7429    3.8444    0.0000 H   0  0  0  0  0  0  0  0  0  0  0  0
   13.3399    3.0344    0.0000 H   0  0  0  0  0  0  0  0  0  0  0  0
   14.7429   13.7158    0.0000 H   0  0  0  0  0  0  0  0  0  0  0  0
   13.3399   12.9058    0.0000 H   0  0  0  0  0  0  0  0  0  0  0  0
    3.2018    9.2375    0.0000 H   0  0  0  0  0  0  0  0  0  0  0  0
    4.6047   10.0475    0.0000 H   0  0  0  0  0  0  0  0  0  0  0  0
   15.6621    7.0108    0.0000 H   0  0  0  0  0  0  0  0  0  0  0  0
   10.1382    3.8215    0.0000 H   0  0  0  0  0  0  0  0  0  0  0  0
   15.6621   16.8822    0.0000 H   0  0  0  0  0  0  0  0  0  0  0  0
   10.1382   13.6930    0.0000 H   0  0  0  0  0  0  0  0  0  0  0  0
    0.0000   10.0246    0.0000 H   0  0  0  0  0  0  0  0  0  0  0  0
    5.5240   13.2139    0.0000 H   0  0  0  0  0  0  0  0  0  0  0  0
   14.2195    7.8437    0.0000 H   0  0  0  0  0  0  0  0  0  0  0  0
   10.1382    5.4873    0.0000 H   0  0  0  0  0  0  0  0  0  0  0  0
   14.2195   17.7151    0.0000 H   0  0  0  0  0  0  0  0  0  0  0  0
   10.1382   15.3587    0.0000 H   0  0  0  0  0  0  0  0  0  0  0  0
    0.0000   11.6904    0.0000 H   0  0  0  0  0  0  0  0  0  0  0  0
    4.0814   14.0467    0.0000 H   0  0  0  0  0  0  0  0  0  0  0  0
   15.4241    3.8476    0.0000 H   0  0  0  0  0  0  0  0  0  0  0  0
   12.9966    2.4461    0.0000 H   0  0  0  0  0  0  0  0  0  0  0  0
   16.8551   16.1326    0.0000 H   0  0  0  0  0  0  0  0  0  0  0  0
   12.9966   12.3175    0.0000 H   0  0  0  0  0  0  0  0  0  0  0  0
    2.8584    8.6491    0.0000 H   0  0  0  0  0  0  0  0  0  0  0  0
    6.7169   12.4643    0.0000 H   0  0  0  0  0  0  0  0  0  0  0  0
   16.8551    6.2612    0.0000 H   0  0  0  0  0  0  0  0  0  0  0  0
   10.1909    2.4136    0.0000 H   0  0  0  0  0  0  0  0  0  0  0  0
   15.4241   13.7190    0.0000 H   0  0  0  0  0  0  0  0  0  0  0  0
   10.1909   12.2850    0.0000 H   0  0  0  0  0  0  0  0  0  0  0  0
    0.0527    8.6167    0.0000 H   0  0  0  0  0  0  0  0  0  0  0  0
    5.2859   10.0506    0.0000 H   0  0  0  0  0  0  0  0  0  0  0  0
   16.8176    3.0214    0.0000 H   0  0  0  0  0  0  0  0  0  0  0  0
   13.0153    0.8262    0.0000 H   0  0  0  0  0  0  0  0  0  0  0  0
   18.2486   15.3065    0.0000 H   0  0  0  0  0  0  0  0  0  0  0  0
   13.0153   10.6976    0.0000 H   0  0  0  0  0  0  0  0  0  0  0  0
    2.8772    7.0292    0.0000 H   0  0  0  0  0  0  0  0  0  0  0  0
    8.1104   11.6381    0.0000 H   0  0  0  0  0  0  0  0  0  0  0  0
   18.2486    5.4350    0.0000 H   0  0  0  0  0  0  0  0  0  0  0  0
   10.2096    0.7937    0.0000 H   0  0  0  0  0  0  0  0  0  0  0  0
   16.8176   12.8928    0.0000 H   0  0  0  0  0  0  0  0  0  0  0  0
   10.2096   10.6652    0.0000 H   0  0  0  0  0  0  0  0  0  0  0  0
    0.0714    6.9968    0.0000 H   0  0  0  0  0  0  0  0  0  0  0  0
    6.6794    9.2245    0.0000 H   0  0  0  0  0  0  0  0  0  0  0  0
   18.2298    3.8151    0.0000 H   0  0  0  0  0  0  0  0  0  0  0  0
   11.6218    0.0000    0.0000 H   0  0  0  0  0  0  0  0  0  0  0  0
   18.2298   13.6866    0.0000 H   0  0  0  0  0  0  0  0  0  0  0  0
   11.6218    9.8714    0.0000 H   0  0  0  0  0  0  0  0  0  0  0  0
    1.4837    6.2031    0.0000 H   0  0  0  0  0  0  0  0  0  0  0  0
    8.0917   10.0182    0.0000 H   0  0  0  0  0  0  0  0  0  0  0  0
  4 16  2  0  0  0  0
  4 46  1  0  0  0  0
  5 17  2  0  0  0  0
  5 47  1  0  0  0  0
  6 18  2  0  0  0  0
  6 48  1  0  0  0  0
  7 19  2  0  0  0  0
  7 49  1  0  0  0  0
  8 20  2  0  0  0  0
  8 50  1  0  0  0  0
  9 21  2  0  0  0  0
  9 51  1  0  0  0  0
 10 16  1  0  0  0  0
 10 22  2  0  0  0  0
 10 28  1  0  0  0  0
 11 17  1  0  0  0  0
 11 23  2  0  0  0  0
 11 29  1  0  0  0  0
 12 18  1  0  0  0  0
 12 24  2  0  0  0  0
 12 30  1  0  0  0  0
 13 19  1  0  0  0  0
 13 25  2  0  0  0  0
 13 31  1  0  0  0  0
 14 20  1  0  0  0  0
 14 26  2  0  0  0  0
 14 32  1  0  0  0  0
 15 21  1  0  0  0  0
 15 27  2  0  0  0  0
 15 33  1  0  0  0  0
 16 17  1  0  0  0  0
 18 19  1  0  0  0  0
 20 21  1  0  0  0  0
 22 34  1  0  0  0  0
 22 40  1  0  0  0  0
 23 35  1  0  0  0  0
 23 41  1  0  0  0  0
 24 36  1  0  0  0  0
 24 42  1  0  0  0  0
 25 37  1  0  0  0  0
 25 43  1  0  0  0  0
 26 38  1  0  0  0  0
 26 44  1  0  0  0  0
 27 39  1  0  0  0  0
 27 45  1  0  0  0  0
 28 29  2  0  0  0  0
 28 82  1  0  0  0  0
 29 83  1  0  0  0  0
 30 31  2  0  0  0  0
 30 84  1  0  0  0  0
 31 85  1  0  0  0  0
 32 33  2  0  0  0  0
 32 86  1  0  0  0  0
 33 87  1  0  0  0  0
 34 52  2  0  0  0  0
 34 58  1  0  0  0  0
 35 53  2  0  0  0  0
 35 59  1  0  0  0  0
 36 54  2  0  0  0  0
 36 60  1  0  0  0  0
 37 55  2  0  0  0  0
 37 61  1  0  0  0  0
 38 56  2  0  0  0  0
 38 62  1  0  0  0  0
 39 57  2  0  0  0  0
 39 63  1  0  0  0  0
 40 46  2  0  0  0  0
 40 88  1  0  0  0  0
 41 47  2  0  0  0  0
 41 89  1  0  0  0  0
 42 48  2  0  0  0  0
 42 90  1  0  0  0  0
 43 49  2  0  0  0  0
 43 91  1  0  0  0  0
 44 50  2  0  0  0  0
 44 92  1  0  0  0  0
 45 51  2  0  0  0  0
 45 93  1  0  0  0  0
 46 94  1  0  0  0  0
 47 95  1  0  0  0  0
 48 96  1  0  0  0  0
 49 97  1  0  0  0  0
 50 98  1  0  0  0  0
 51 99  1  0  0  0  0
 52 64  1  0  0  0  0
 52100  1  0  0  0  0
 53 65  1  0  0  0  0
 53101  1  0  0  0  0
 54 66  1  0  0  0  0
 54102  1  0  0  0  0
 55 67  1  0  0  0  0
 55103  1  0  0  0  0
 56 68  1  0  0  0  0
 56104  1  0  0  0  0
 57 69  1  0  0  0  0
 57105  1  0  0  0  0
 58 70  2  0  0  0  0
 58106  1  0  0  0  0
 59 71  2  0  0  0  0
 59107  1  0  0  0  0
 60 72  2  0  0  0  0
 60108  1  0  0  0  0
 61 73  2  0  0  0  0
 61109  1  0  0  0  0
 62 74  2  0  0  0  0
 62110  1  0  0  0  0
 63 75  2  0  0  0  0
 63111  1  0  0  0  0
 64 76  2  0  0  0  0
 64112  1  0  0  0  0
 65 77  2  0  0  0  0
 65113  1  0  0  0  0
 66 78  2  0  0  0  0
 66114  1  0  0  0  0
 67 79  2  0  0  0  0
 67115  1  0  0  0  0
 68 80  2  0  0  0  0
 68116  1  0  0  0  0
 69 81  2  0  0  0  0
 69117  1  0  0  0  0
 70 76  1  0  0  0  0
 70118  1  0  0  0  0
 71 77  1  0  0  0  0
 71119  1  0  0  0  0
 72 78  1  0  0  0  0
 72120  1  0  0  0  0
 73 79  1  0  0  0  0
 73121  1  0  0  0  0
 74 80  1  0  0  0  0
 74122  1  0  0  0  0
 75 81  1  0  0  0  0
 75123  1  0  0  0  0
 76124  1  0  0  0  0
 77125  1  0  0  0  0
 78126  1  0  0  0  0
 79127  1  0  0  0  0
 80128  1  0  0  0  0
 81129  1  0  0  0  0
M  CHG  3   1   2   2  -1   3  -1
M  END
> <PUBCHEM_COMPOUND_CID>
11980975

> <PUBCHEM_COMPOUND_CANONICALIZED>
1

> <PUBCHEM_CACTVS_COMPLEXITY>
409

> <PUBCHEM_CACTVS_HBOND_ACCEPTOR>
8

> <PUBCHEM_CACTVS_HBOND_DONOR>
0

> <PUBCHEM_CACTVS_ROTATABLE_BOND>
6

> <PUBCHEM_CACTVS_SUBSKEYS>
AAADcfB/gAAGAAAAACAAAAAAAAAAAAAAAAA8ePHjwAAAAACx/gAAHAAAAAAADAjBHgQ8wPIIEACgAzRnRACCgCQxEiAI2CA4dJgIYOLAkZGUIAhggADIyAcQgMAOwAAAQAACACCAAACAAAQAQAAAAAAAAA==

> <PUBCHEM_IUPAC_OPENEYE_NAME>
4,7-diphenyl-1,10-phenanthroline;ruthenium(2+);dichloride

> <PUBCHEM_IUPAC_CAS_NAME>
4,7-diphenyl-1,10-phenanthroline;ruthenium(2+);dichloride

> <PUBCHEM_IUPAC_NAME_MARKUP>
4,7-diphenyl-1,10-phenanthroline;ruthenium(2+);dichloride

> <PUBCHEM_IUPAC_NAME>
4,7-diphenyl-1,10-phenanthroline;ruthenium(2+);dichloride

> <PUBCHEM_IUPAC_SYSTEMATIC_NAME>
4,7-diphenyl-1,10-phenanthroline;ruthenium(2+);dichloride

> <PUBCHEM_IUPAC_TRADITIONAL_NAME>
4,7-diphenyl-1,10-phenanthroline;ruthenium(2+);dichloride

> <PUBCHEM_IUPAC_INCHI>
InChI=1S/3C24H16N2.2ClH.Ru/c3*1-3-7-17(8-4-1)19-13-15-25-23-21(19)11-12-22-20(14-16-26-24(22)23)18-9-5-2-6-10-18;;;/h3*1-16H;2*1H;/q;;;;;+2/p-2

> <PUBCHEM_IUPAC_INCHIKEY>
SKZWFYFFTOHWQP-UHFFFAOYSA-L

> <PUBCHEM_EXACT_MASS>
1168.236091

> <PUBCHEM_MOLECULAR_FORMULA>
C72H48Cl2N6Ru

> <PUBCHEM_MOLECULAR_WEIGHT>
1169.2

> <PUBCHEM_SMILES>
C1=CC=C(C=C1)C2=C3C=CC4=C(C=CN=C4C3=NC=C2)C5=CC=CC=C5.C1=CC=C(C=C1)C2=C3C=CC4=C(C=CN=C4C3=NC=C2)C5=CC=CC=C5.C1=CC=C(C=C1)C2=C3C=CC4=C(C=CN=C4C3=NC=C2)C5=CC=CC=C5.[Cl-].[Cl-].[Ru+2]

> <PUBCHEM_OPENEYE_CAN_SMILES>
C1=CC=C(C=C1)C2=C3C=CC4=C(C=CN=C4C3=NC=C2)C5=CC=CC=C5.C1=CC=C(C=C1)C2=C3C=CC4=C(C=CN=C4C3=NC=C2)C5=CC=CC=C5.C1=CC=C(C=C1)C2=C3C=CC4=C(C=CN=C4C3=NC=C2)C5=CC=CC=C5.[Cl-].[Cl-].[Ru+2]

> <PUBCHEM_OPENEYE_ISO_SMILES>
C1=CC=C(C=C1)C2=C3C=CC4=C(C=CN=C4C3=NC=C2)C5=CC=CC=C5.C1=CC=C(C=C1)C2=C3C=CC4=C(C=CN=C4C3=NC=C2)C5=CC=CC=C5.C1=CC=C(C=C1)C2=C3C=CC4=C(C=CN=C4C3=NC=C2)C5=CC=CC=C5.[Cl-].[Cl-].[Ru+2]

> <PUBCHEM_CACTVS_TPSA>
77.3

> <PUBCHEM_MONOISOTOPIC_WEIGHT>
1168.236091

> <PUBCHEM_TOTAL_CHARGE>
0

> <PUBCHEM_HEAVY_ATOM_COUNT>
81

> <PUBCHEM_ATOM_DEF_STEREO_COUNT>
0

> <PUBCHEM_ATOM_UDEF_STEREO_COUNT>
0

> <PUBCHEM_BOND_DEF_STEREO_COUNT>
0

> <PUBCHEM_BOND_UDEF_STEREO_COUNT>
0

> <PUBCHEM_ISOTOPIC_ATOM_COUNT>
0

> <PUBCHEM_COMPONENT_COUNT>
6

> <PUBCHEM_CACTVS_TAUTO_COUNT>
-1

> <PUBCHEM_COORDINATE_TYPE>
1
5
255

> <PUBCHEM_BONDANNOTATIONS>
10  16  8
10  22  8
10  28  8
11  17  8
11  23  8
11  29  8
12  18  8
12  24  8
12  30  8
13  19  8
13  25  8
13  31  8
14  20  8
14  26  8
14  32  8
15  21  8
15  27  8
15  33  8
16  17  8
18  19  8
20  21  8
22  40  8
23  41  8
24  42  8
25  43  8
26  44  8
27  45  8
28  29  8
30  31  8
32  33  8
34  52  8
34  58  8
35  53  8
35  59  8
36  54  8
36  60  8
37  55  8
37  61  8
38  56  8
38  62  8
39  57  8
39  63  8
4  16  8
4  46  8
40  46  8
41  47  8
42  48  8
43  49  8
44  50  8
45  51  8
5  17  8
5  47  8
52  64  8
53  65  8
54  66  8
55  67  8
56  68  8
57  69  8
58  70  8
59  71  8
6  18  8
6  48  8
60  72  8
61  73  8
62  74  8
63  75  8
64  76  8
65  77  8
66  78  8
67  79  8
68  80  8
69  81  8
7  19  8
7  49  8
70  76  8
71  77  8
72  78  8
73  79  8
74  80  8
75  81  8
8  20  8
8  50  8
9  21  8
9  51  8

$$$$
