12672
  -OEChem-04042512272D

  9  8  0     0  0  0  0  0  0999 V2000
    2.0000   -0.5000    0.0000 F   0  0  0  0  0  0  0  0  0  0  0  0
    2.3660    0.8660    0.0000 F   0  0  0  0  0  0  0  0  0  0  0  0
    3.3660   -0.8660    0.0000 F   0  0  0  0  0  0  0  0  0  0  0  0
    2.8660    0.0000    0.0000 C   0  0  0  0  0  0  0  0  0  0  0  0
    3.7320    0.5000    0.0000 C   0  0  0  0  0  0  0  0  0  0  0  0
    4.5981    0.0000    0.0000 C   0  0  0  0  0  0  0  0  0  0  0  0
    3.7320    1.1200    0.0000 H   0  0  0  0  0  0  0  0  0  0  0  0
    4.5981   -0.6200    0.0000 H   0  0  0  0  0  0  0  0  0  0  0  0
    5.1350    0.3100    0.0000 H   0  0  0  0  0  0  0  0  0  0  0  0
  1  4  1  0  0  0  0
  2  4  1  0  0  0  0
  3  4  1  0  0  0  0
  4  5  1  0  0  0  0
  5  6  2  0  0  0  0
  5  7  1  0  0  0  0
  6  8  1  0  0  0  0
  6  9  1  0  0  0  0
M  END
> <PUBCHEM_COMPOUND_CID>
12672

> <PUBCHEM_COMPOUND_CANONICALIZED>
1

> <PUBCHEM_CACTVS_COMPLEXITY>
51.5

> <PUBCHEM_CACTVS_HBOND_ACCEPTOR>
3

> <PUBCHEM_CACTVS_HBOND_DONOR>
0

> <PUBCHEM_CACTVS_ROTATABLE_BOND>
0

> <PUBCHEM_CACTVS_SUBSKEYS>
AAADcQBAAYAAAAAAAAAAAAAAAAAAAAAAAAAAAAAAAAAAAAAAAAAAGQAAAAAACACAABAAAAAAAACAACBCAAAAAAAAAAAIAAAAAAAAAAAAAAAAAAAAAAAAAAAAAAAAAAAAAAAAAAAAAAAAAAAAAAAAAAAAAA==

> <PUBCHEM_IUPAC_OPENEYE_NAME>
3,3,3-trifluoroprop-1-ene

> <PUBCHEM_IUPAC_CAS_NAME>
3,3,3-trifluoro-1-propene

> <PUBCHEM_IUPAC_NAME_MARKUP>
3,3,3-trifluoroprop-1-ene

> <PUBCHEM_IUPAC_NAME>
3,3,3-trifluoroprop-1-ene

> <PUBCHEM_IUPAC_SYSTEMATIC_NAME>
3,3,3-tris(fluoranyl)prop-1-ene

> <PUBCHEM_IUPAC_TRADITIONAL_NAME>
3,3,3-trifluoroprop-1-ene

> <PUBCHEM_IUPAC_INCHI>
InChI=1S/C3H3F3/c1-2-3(4,5)6/h2H,1H2

> <PUBCHEM_IUPAC_INCHIKEY>
FDMFUZHCIRHGRG-UHFFFAOYSA-N

> <PUBCHEM_XLOGP3_AA>
2

> <PUBCHEM_EXACT_MASS>
96.01868458

> <PUBCHEM_MOLECULAR_FORMULA>
C3H3F3

> <PUBCHEM_MOLECULAR_WEIGHT>
96.05

> <PUBCHEM_SMILES>
C=CC(F)(F)F

> <PUBCHEM_OPENEYE_CAN_SMILES>
C=CC(F)(F)F

> <PUBCHEM_OPENEYE_ISO_SMILES>
C=CC(F)(F)F

> <PUBCHEM_CACTVS_TPSA>
0

> <PUBCHEM_MONOISOTOPIC_WEIGHT>
96.01868458

> <PUBCHEM_TOTAL_CHARGE>
0

> <PUBCHEM_HEAVY_ATOM_COUNT>
6

> <PUBCHEM_ATOM_DEF_STEREO_COUNT>
0

> <PUBCHEM_ATOM_UDEF_STEREO_COUNT>
0

> <PUBCHEM_BOND_DEF_STEREO_COUNT>
0

> <PUBCHEM_BOND_UDEF_STEREO_COUNT>
0

> <PUBCHEM_ISOTOPIC_ATOM_COUNT>
0

> <PUBCHEM_COMPONENT_COUNT>
1

> <PUBCHEM_CACTVS_TAUTO_COUNT>
-1

> <PUBCHEM_COORDINATE_TYPE>
1
5
255

$$$$
