133126848
  -OEChem-04042505522D

124125  0     1  0  0  0  0  0999 V2000
   10.5390    2.0369    0.0000 O   0  0  0  0  0  0  0  0  0  0  0  0
    9.6730    3.5369    0.0000 O   0  0  0  0  0  0  0  0  0  0  0  0
   12.2711    4.0369    0.0000 O   0  0  0  0  0  0  0  0  0  0  0  0
   12.2711    1.0369    0.0000 O   0  0  0  0  0  0  0  0  0  0  0  0
    8.8070    1.0369    0.0000 O   0  0  0  0  0  0  0  0  0  0  0  0
    7.0749    2.0369    0.0000 O   0  0  0  0  0  0  0  0  0  0  0  0
    7.0749    4.0369    0.0000 O   0  0  0  0  0  0  0  0  0  0  0  0
   11.4050   13.4669    0.0000 O   0  0  0  0  0  0  0  0  0  0  0  0
   14.0031    2.0369    0.0000 O   0  0  0  0  0  0  0  0  0  0  0  0
    9.6730   13.4669    0.0000 O   0  0  0  0  0  0  0  0  0  0  0  0
   14.0031    4.0369    0.0000 O   0  0  0  0  0  0  0  0  0  0  0  0
   12.2711   10.9669    0.0000 O   0  0  0  0  0  0  0  0  0  0  0  0
   10.5390    5.0369    0.0000 O   0  0  0  0  0  0  0  0  0  0  0  0
    9.6730    5.5369    0.0000 O   0  0  0  0  0  0  0  0  0  0  0  0
    9.6730   12.4669    0.0000 O   0  0  0  0  0  0  0  0  0  0  0  0
   11.4050   15.4669    0.0000 O   0  0  0  0  0  0  0  0  0  0  0  0
    9.6730   16.4669    0.0000 O   0  0  0  0  0  0  0  0  0  0  0  0
    7.9409   15.4669    0.0000 O   0  0  0  0  0  0  0  0  0  0  0  0
    9.6730   10.4669    0.0000 O   0  0  0  0  0  0  0  0  0  0  0  0
   11.4050    9.4669    0.0000 O   0  0  0  0  0  0  0  0  0  0  0  0
   14.0031   11.9669    0.0000 O   0  0  0  0  0  0  0  0  0  0  0  0
    7.0749   13.9669    0.0000 O   0  0  0  0  0  0  0  0  0  0  0  0
    0.5369    8.6385    0.0000 O   0  0  0  0  0  0  0  0  0  0  0  0
    3.1350    8.1385    0.0000 O   0  0  0  0  0  0  0  0  0  0  0  0
   11.4050    2.5369    0.0000 C   0  0  2  0  0  0  0  0  0  0  0  0
   12.2711    2.0369    0.0000 C   0  0  2  0  0  0  0  0  0  0  0  0
    9.6730    2.5369    0.0000 C   0  0  1  0  0  0  0  0  0  0  0  0
    8.8070    2.0369    0.0000 C   0  0  2  0  0  0  0  0  0  0  0  0
    7.9409    2.5369    0.0000 C   0  0  1  0  0  0  0  0  0  0  0  0
   11.4050    3.5369    0.0000 C   0  0  2  0  0  0  0  0  0  0  0  0
    7.9409    3.5369    0.0000 C   0  0  2  0  0  0  0  0  0  0  0  0
   13.1371    2.5369    0.0000 C   0  0  1  0  0  0  0  0  0  0  0  0
    8.8070    4.0369    0.0000 C   0  0  2  0  0  0  0  0  0  0  0  0
   13.1371    3.5369    0.0000 C   0  0  2  0  0  0  0  0  0  0  0  0
   11.4050   12.4669    0.0000 C   0  0  2  0  0  0  0  0  0  0  0  0
   10.5390    4.0369    0.0000 C   0  0  0  0  0  0  0  0  0  0  0  0
   10.5390   11.9669    0.0000 C   0  0  2  0  0  0  0  0  0  0  0  0
    8.8070    5.0369    0.0000 C   0  0  0  0  0  0  0  0  0  0  0  0
   10.5390   13.9669    0.0000 C   0  0  1  0  0  0  0  0  0  0  0  0
   12.2711   11.9669    0.0000 C   0  0  2  0  0  0  0  0  0  0  0  0
   10.5390   14.9669    0.0000 C   0  0  2  0  0  0  0  0  0  0  0  0
    9.6730   15.4669    0.0000 C   0  0  1  0  0  0  0  0  0  0  0  0
    8.8070   14.9669    0.0000 C   0  0  2  0  0  0  0  0  0  0  0  0
   10.5390   10.9669    0.0000 C   0  0  1  0  0  0  0  0  0  0  0  0
    8.8070   13.9669    0.0000 C   0  0  2  0  0  0  0  0  0  0  0  0
   11.4050   10.4669    0.0000 C   0  0  2  0  0  0  0  0  0  0  0  0
   13.1371   12.4669    0.0000 C   0  0  0  0  0  0  0  0  0  0  0  0
    7.9409   13.4669    0.0000 C   0  0  0  0  0  0  0  0  0  0  0  0
   13.1371    0.5369    0.0000 C   0  0  0  0  0  0  0  0  0  0  0  0
    7.9409    0.5369    0.0000 C   0  0  0  0  0  0  0  0  0  0  0  0
    6.2089    2.5369    0.0000 C   0  0  0  0  0  0  0  0  0  0  0  0
    7.0749    5.0369    0.0000 C   0  0  0  0  0  0  0  0  0  0  0  0
   14.8691    2.5369    0.0000 C   0  0  0  0  0  0  0  0  0  0  0  0
   14.0031    5.0369    0.0000 C   0  0  0  0  0  0  0  0  0  0  0  0
   11.4050    5.5369    0.0000 C   0  0  0  0  0  0  0  0  0  0  0  0
    9.6730    6.5369    0.0000 C   0  0  0  0  0  0  0  0  0  0  0  0
    1.4030    8.1385    0.0000 C   0  0  0  0  0  0  0  0  0  0  0  0
    2.2690    8.6385    0.0000 C   0  0  0  0  0  0  0  0  0  0  0  0
   10.8681    2.8469    0.0000 H   0  0  0  0  0  0  0  0  0  0  0  0
   11.7341    1.7269    0.0000 H   0  0  0  0  0  0  0  0  0  0  0  0
    9.6730    1.9169    0.0000 H   0  0  0  0  0  0  0  0  0  0  0  0
    8.2700    1.7269    0.0000 H   0  0  0  0  0  0  0  0  0  0  0  0
    7.4040    2.8469    0.0000 H   0  0  0  0  0  0  0  0  0  0  0  0
   11.4050    4.1569    0.0000 H   0  0  0  0  0  0  0  0  0  0  0  0
    7.9409    4.1569    0.0000 H   0  0  0  0  0  0  0  0  0  0  0  0
   13.1371    1.9169    0.0000 H   0  0  0  0  0  0  0  0  0  0  0  0
    9.3439    4.3469    0.0000 H   0  0  0  0  0  0  0  0  0  0  0  0
   13.6740    3.2269    0.0000 H   0  0  0  0  0  0  0  0  0  0  0  0
   11.9420   12.7769    0.0000 H   0  0  0  0  0  0  0  0  0  0  0  0
    9.9284    4.1446    0.0000 H   0  0  0  0  0  0  0  0  0  0  0  0
   10.3270    3.4543    0.0000 H   0  0  0  0  0  0  0  0  0  0  0  0
   10.5390   12.5869    0.0000 H   0  0  0  0  0  0  0  0  0  0  0  0
   10.5390   13.3469    0.0000 H   0  0  0  0  0  0  0  0  0  0  0  0
    8.5949    5.6195    0.0000 H   0  0  0  0  0  0  0  0  0  0  0  0
    8.1964    4.9293    0.0000 H   0  0  0  0  0  0  0  0  0  0  0  0
   12.8080   11.6569    0.0000 H   0  0  0  0  0  0  0  0  0  0  0  0
   10.5390   15.5869    0.0000 H   0  0  0  0  0  0  0  0  0  0  0  0
    9.1360   15.7769    0.0000 H   0  0  0  0  0  0  0  0  0  0  0  0
    8.8070   15.5869    0.0000 H   0  0  0  0  0  0  0  0  0  0  0  0
   10.0021   11.2769    0.0000 H   0  0  0  0  0  0  0  0  0  0  0  0
    8.8070   13.3469    0.0000 H   0  0  0  0  0  0  0  0  0  0  0  0
   10.8681   10.1569    0.0000 H   0  0  0  0  0  0  0  0  0  0  0  0
   13.5356   12.9419    0.0000 H   0  0  0  0  0  0  0  0  0  0  0  0
   12.7386   12.9419    0.0000 H   0  0  0  0  0  0  0  0  0  0  0  0
    7.5424   12.9920    0.0000 H   0  0  0  0  0  0  0  0  0  0  0  0
    8.3395   12.9920    0.0000 H   0  0  0  0  0  0  0  0  0  0  0  0
   12.8271    0.0000    0.0000 H   0  0  0  0  0  0  0  0  0  0  0  0
   13.6740    0.2269    0.0000 H   0  0  0  0  0  0  0  0  0  0  0  0
   13.4471    1.0739    0.0000 H   0  0  0  0  0  0  0  0  0  0  0  0
    7.6309    1.0739    0.0000 H   0  0  0  0  0  0  0  0  0  0  0  0
    7.4040    0.2269    0.0000 H   0  0  0  0  0  0  0  0  0  0  0  0
    8.2509    0.0000    0.0000 H   0  0  0  0  0  0  0  0  0  0  0  0
    6.5189    3.0739    0.0000 H   0  0  0  0  0  0  0  0  0  0  0  0
    5.6720    2.8469    0.0000 H   0  0  0  0  0  0  0  0  0  0  0  0
    5.8989    2.0000    0.0000 H   0  0  0  0  0  0  0  0  0  0  0  0
    7.6949    5.0369    0.0000 H   0  0  0  0  0  0  0  0  0  0  0  0
    7.0749    5.6569    0.0000 H   0  0  0  0  0  0  0  0  0  0  0  0
    6.4549    5.0369    0.0000 H   0  0  0  0  0  0  0  0  0  0  0  0
   15.1791    2.0000    0.0000 H   0  0  0  0  0  0  0  0  0  0  0  0
   15.4061    2.8469    0.0000 H   0  0  0  0  0  0  0  0  0  0  0  0
   14.5591    3.0739    0.0000 H   0  0  0  0  0  0  0  0  0  0  0  0
    9.1360   12.1569    0.0000 H   0  0  0  0  0  0  0  0  0  0  0  0
   11.4050   16.0869    0.0000 H   0  0  0  0  0  0  0  0  0  0  0  0
    9.1360   16.7769    0.0000 H   0  0  0  0  0  0  0  0  0  0  0  0
    7.9409   16.0869    0.0000 H   0  0  0  0  0  0  0  0  0  0  0  0
   14.6231    5.0369    0.0000 H   0  0  0  0  0  0  0  0  0  0  0  0
   14.0031    5.6569    0.0000 H   0  0  0  0  0  0  0  0  0  0  0  0
   13.3831    5.0369    0.0000 H   0  0  0  0  0  0  0  0  0  0  0  0
    9.6730    9.8469    0.0000 H   0  0  0  0  0  0  0  0  0  0  0  0
   11.9420    9.1569    0.0000 H   0  0  0  0  0  0  0  0  0  0  0  0
   11.7150    5.0000    0.0000 H   0  0  0  0  0  0  0  0  0  0  0  0
   11.9420    5.8469    0.0000 H   0  0  0  0  0  0  0  0  0  0  0  0
   11.0950    6.0739    0.0000 H   0  0  0  0  0  0  0  0  0  0  0  0
   10.2930    6.5369    0.0000 H   0  0  0  0  0  0  0  0  0  0  0  0
    9.6730    7.1569    0.0000 H   0  0  0  0  0  0  0  0  0  0  0  0
    9.0530    6.5369    0.0000 H   0  0  0  0  0  0  0  0  0  0  0  0
   14.5400   12.2769    0.0000 H   0  0  0  0  0  0  0  0  0  0  0  0
    6.5380   13.6569    0.0000 H   0  0  0  0  0  0  0  0  0  0  0  0
    1.0044    7.6635    0.0000 H   0  0  0  0  0  0  0  0  0  0  0  0
    1.8015    7.6635    0.0000 H   0  0  0  0  0  0  0  0  0  0  0  0
    2.6675    9.1134    0.0000 H   0  0  0  0  0  0  0  0  0  0  0  0
    1.8705    9.1134    0.0000 H   0  0  0  0  0  0  0  0  0  0  0  0
    0.0000    8.3285    0.0000 H   0  0  0  0  0  0  0  0  0  0  0  0
    3.6720    8.4485    0.0000 H   0  0  0  0  0  0  0  0  0  0  0  0
 25  1  1  1  0  0  0
 27  1  1  6  0  0  0
  2 27  1  0  0  0  0
  2 33  1  0  0  0  0
  3 30  1  0  0  0  0
  3 34  1  0  0  0  0
 26  4  1  6  0  0  0
  4 49  1  0  0  0  0
 28  5  1  1  0  0  0
  5 50  1  0  0  0  0
 29  6  1  6  0  0  0
  6 51  1  0  0  0  0
 31  7  1  1  0  0  0
  7 52  1  0  0  0  0
 35  8  1  1  0  0  0
 39  8  1  1  0  0  0
 32  9  1  1  0  0  0
  9 53  1  0  0  0  0
 10 39  1  0  0  0  0
 10 45  1  0  0  0  0
 34 11  1  6  0  0  0
 11 54  1  0  0  0  0
 12 40  1  0  0  0  0
 12 46  1  0  0  0  0
 13 36  1  0  0  0  0
 13 55  1  0  0  0  0
 14 38  1  0  0  0  0
 14 56  1  0  0  0  0
 37 15  1  6  0  0  0
 15102  1  0  0  0  0
 41 16  1  6  0  0  0
 16103  1  0  0  0  0
 42 17  1  1  0  0  0
 17104  1  0  0  0  0
 43 18  1  6  0  0  0
 18105  1  0  0  0  0
 44 19  1  1  0  0  0
 19109  1  0  0  0  0
 46 20  1  6  0  0  0
 20110  1  0  0  0  0
 21 47  1  0  0  0  0
 21117  1  0  0  0  0
 22 48  1  0  0  0  0
 22118  1  0  0  0  0
 23 57  1  0  0  0  0
 23123  1  0  0  0  0
 24 58  1  0  0  0  0
 24124  1  0  0  0  0
 25 26  1  0  0  0  0
 25 30  1  0  0  0  0
 25 59  1  0  0  0  0
 26 32  1  0  0  0  0
 26 60  1  0  0  0  0
 27 28  1  0  0  0  0
 27 61  1  0  0  0  0
 28 29  1  0  0  0  0
 28 62  1  0  0  0  0
 29 31  1  0  0  0  0
 29 63  1  0  0  0  0
 30 36  1  6  0  0  0
 30 64  1  0  0  0  0
 31 33  1  0  0  0  0
 31 65  1  0  0  0  0
 32 34  1  0  0  0  0
 32 66  1  0  0  0  0
 33 38  1  6  0  0  0
 33 67  1  0  0  0  0
 34 68  1  0  0  0  0
 35 37  1  0  0  0  0
 35 40  1  0  0  0  0
 35 69  1  0  0  0  0
 36 70  1  0  0  0  0
 36 71  1  0  0  0  0
 37 44  1  0  0  0  0
 37 72  1  0  0  0  0
 38 74  1  0  0  0  0
 38 75  1  0  0  0  0
 39 41  1  0  0  0  0
 39 73  1  0  0  0  0
 40 47  1  6  0  0  0
 40 76  1  0  0  0  0
 41 42  1  0  0  0  0
 41 77  1  0  0  0  0
 42 43  1  0  0  0  0
 42 78  1  0  0  0  0
 43 45  1  0  0  0  0
 43 79  1  0  0  0  0
 44 46  1  0  0  0  0
 44 80  1  0  0  0  0
 45 48  1  1  0  0  0
 45 81  1  0  0  0  0
 46 82  1  0  0  0  0
 47 83  1  0  0  0  0
 47 84  1  0  0  0  0
 48 85  1  0  0  0  0
 48 86  1  0  0  0  0
 49 87  1  0  0  0  0
 49 88  1  0  0  0  0
 49 89  1  0  0  0  0
 50 90  1  0  0  0  0
 50 91  1  0  0  0  0
 50 92  1  0  0  0  0
 51 93  1  0  0  0  0
 51 94  1  0  0  0  0
 51 95  1  0  0  0  0
 52 96  1  0  0  0  0
 52 97  1  0  0  0  0
 52 98  1  0  0  0  0
 53 99  1  0  0  0  0
 53100  1  0  0  0  0
 53101  1  0  0  0  0
 54106  1  0  0  0  0
 54107  1  0  0  0  0
 54108  1  0  0  0  0
 55111  1  0  0  0  0
 55112  1  0  0  0  0
 55113  1  0  0  0  0
 56114  1  0  0  0  0
 56115  1  0  0  0  0
 56116  1  0  0  0  0
 57 58  1  0  0  0  0
 57119  1  0  0  0  0
 57120  1  0  0  0  0
 58121  1  0  0  0  0
 58122  1  0  0  0  0
M  END
> <PUBCHEM_COMPOUND_CID>
133126848

> <PUBCHEM_COMPOUND_CANONICALIZED>
1

> <PUBCHEM_CACTVS_COMPLEXITY>
884

> <PUBCHEM_CACTVS_HBOND_ACCEPTOR>
24

> <PUBCHEM_CACTVS_HBOND_DONOR>
10

> <PUBCHEM_CACTVS_ROTATABLE_BOND>
17

> <PUBCHEM_CACTVS_SUBSKEYS>
AAADcfB8PgAAAAAAAAAAAAAAAAAAAAAAAAAkSJEgAAAAAAAAAAAAGgAACAAACBSwgAMCCAAABgAAAAAAAAAAAAAAAAAAAAAAAAAREAIAAAAiQAAFAAAHAAHAYAwAAAAAAAAAAAAAAAAAAAAAAAAAAAAAAA==

> <PUBCHEM_IUPAC_OPENEYE_NAME>
ethylene glycol;(2S,3R,4R,5S,6R)-2-(hydroxymethyl)-6-[(2S,3R,4S,5S,6S)-4,5,6-trihydroxy-2-(hydroxymethyl)tetrahydropyran-3-yl]oxy-tetrahydropyran-3,4,5-triol;(2S,3S,4R,5S,6S)-2,3,4-trimethoxy-6-(methoxymethyl)-5-[(2R,3S,4R,5S,6S)-3,4,5-trimethoxy-6-(methoxymethyl)tetrahydropyran-2-yl]oxy-tetrahydropyran

> <PUBCHEM_IUPAC_CAS_NAME>
ethane-1,2-diol;(2S,3R,4R,5S,6R)-2-(hydroxymethyl)-6-[[(2S,3R,4S,5S,6S)-4,5,6-trihydroxy-2-(hydroxymethyl)-3-oxanyl]oxy]oxane-3,4,5-triol;(2S,3S,4R,5S,6S)-2,3,4-trimethoxy-6-(methoxymethyl)-5-[[(2R,3S,4R,5S,6S)-3,4,5-trimethoxy-6-(methoxymethyl)-2-oxanyl]oxy]oxane

> <PUBCHEM_IUPAC_NAME_MARKUP>
ethane-1,2-diol;(2<I>S</I>,3<I>R</I>,4<I>R</I>,5<I>S</I>,6<I>R</I>)-2-(hydroxymethyl)-6-[(2<I>S</I>,3<I>R</I>,4<I>S</I>,5<I>S</I>,6<I>S</I>)-4,5,6-trihydroxy-2-(hydroxymethyl)oxan-3-yl]oxyoxane-3,4,5-triol;(2<I>S</I>,3<I>S</I>,4<I>R</I>,5<I>S</I>,6<I>S</I>)-2,3,4-trimethoxy-6-(methoxymethyl)-5-[(2<I>R</I>,3<I>S</I>,4<I>R</I>,5<I>S</I>,6<I>S</I>)-3,4,5-trimethoxy-6-(methoxymethyl)oxan-2-yl]oxyoxane

> <PUBCHEM_IUPAC_NAME>
ethane-1,2-diol;(2S,3R,4R,5S,6R)-2-(hydroxymethyl)-6-[(2S,3R,4S,5S,6S)-4,5,6-trihydroxy-2-(hydroxymethyl)oxan-3-yl]oxyoxane-3,4,5-triol;(2S,3S,4R,5S,6S)-2,3,4-trimethoxy-6-(methoxymethyl)-5-[(2R,3S,4R,5S,6S)-3,4,5-trimethoxy-6-(methoxymethyl)oxan-2-yl]oxyoxane

> <PUBCHEM_IUPAC_SYSTEMATIC_NAME>
ethane-1,2-diol;(2S,3R,4R,5S,6R)-2-(hydroxymethyl)-6-[(2S,3R,4S,5S,6S)-2-(hydroxymethyl)-4,5,6-tris(oxidanyl)oxan-3-yl]oxy-oxane-3,4,5-triol;(2S,3S,4R,5S,6S)-2,3,4-trimethoxy-6-(methoxymethyl)-5-[(2R,3S,4R,5S,6S)-3,4,5-trimethoxy-6-(methoxymethyl)oxan-2-yl]oxy-oxane

> <PUBCHEM_IUPAC_TRADITIONAL_NAME>
ethylene glycol;(2S,3R,4R,5S,6R)-2-methylol-6-[(2S,3R,4S,5S,6S)-4,5,6-trihydroxy-2-methylol-tetrahydropyran-3-yl]oxy-tetrahydropyran-3,4,5-triol;(2S,3S,4R,5S,6S)-2,3,4-trimethoxy-6-(methoxymethyl)-5-[(2R,3S,4R,5S,6S)-3,4,5-trimethoxy-6-(methoxymethyl)tetrahydropyran-2-yl]oxy-tetrahydropyran

> <PUBCHEM_IUPAC_INCHI>
InChI=1S/C20H38O11.C12H22O11.C2H6O2/c1-21-9-11-13(23-3)15(24-4)18(27-7)20(30-11)31-14-12(10-22-2)29-19(28-8)17(26-6)16(14)25-5;13-1-3-5(15)6(16)9(19)12(22-3)23-10-4(2-14)21-11(20)8(18)7(10)17;3-1-2-4/h11-20H,9-10H2,1-8H3;3-20H,1-2H2;3-4H,1-2H2/t11-,12-,13-,14-,15+,16+,17-,18-,19-,20+;3-,4-,5-,6+,7-,8-,9-,10-,11-,12+;/m00./s1

> <PUBCHEM_IUPAC_INCHIKEY>
JTWZVKMWOCBJEV-KLLFFGQPSA-N

> <PUBCHEM_EXACT_MASS>
858.39440297

> <PUBCHEM_MOLECULAR_FORMULA>
C34H66O24

> <PUBCHEM_MOLECULAR_WEIGHT>
858.9

> <PUBCHEM_SMILES>
COC[C@H]1[C@@H]([C@H]([C@@H]([C@H](O1)O[C@H]2[C@@H](O[C@@H]([C@H]([C@@H]2OC)OC)OC)COC)OC)OC)OC.C(CO)O.C([C@H]1[C@@H]([C@H]([C@@H]([C@H](O1)O[C@H]2[C@@H](O[C@@H]([C@H]([C@@H]2O)O)O)CO)O)O)O)O

> <PUBCHEM_OPENEYE_CAN_SMILES>
COCC1C(C(C(C(O1)OC2C(OC(C(C2OC)OC)OC)COC)OC)OC)OC.C(CO)O.C(C1C(C(C(C(O1)OC2C(OC(C(C2O)O)O)CO)O)O)O)O

> <PUBCHEM_OPENEYE_ISO_SMILES>
COC[C@H]1[C@@H]([C@H]([C@@H]([C@H](O1)O[C@H]2[C@@H](O[C@@H]([C@H]([C@@H]2OC)OC)OC)COC)OC)OC)OC.C(CO)O.C([C@H]1[C@@H]([C@H]([C@@H]([C@H](O1)O[C@H]2[C@@H](O[C@@H]([C@H]([C@@H]2O)O)O)CO)O)O)O)O

> <PUBCHEM_CACTVS_TPSA>
332

> <PUBCHEM_MONOISOTOPIC_WEIGHT>
858.39440297

> <PUBCHEM_TOTAL_CHARGE>
0

> <PUBCHEM_HEAVY_ATOM_COUNT>
58

> <PUBCHEM_ATOM_DEF_STEREO_COUNT>
20

> <PUBCHEM_ATOM_UDEF_STEREO_COUNT>
0

> <PUBCHEM_BOND_DEF_STEREO_COUNT>
0

> <PUBCHEM_BOND_UDEF_STEREO_COUNT>
0

> <PUBCHEM_ISOTOPIC_ATOM_COUNT>
0

> <PUBCHEM_COMPONENT_COUNT>
3

> <PUBCHEM_CACTVS_TAUTO_COUNT>
-1

> <PUBCHEM_COORDINATE_TYPE>
1
5
255

> <PUBCHEM_BONDANNOTATIONS>
25  1  5
27  1  6
34  11  6
37  15  6
41  16  6
42  17  5
43  18  6
44  19  5
46  20  6
30  36  6
33  38  6
26  4  6
40  47  6
45  48  5
28  5  5
29  6  6
31  7  5
35  8  5
39  8  5
32  9  5

$$$$
