135414252
  -OEChem-04042512242D

 25 27  0     0  0  0  0  0  0999 V2000
    4.3198    1.6813    0.0000 O   0  0  0  0  0  0  0  0  0  0  0  0
    6.0682    0.6467    0.0000 N   0  0  0  0  0  0  0  0  0  0  0  0
    6.0682   -1.3533    0.0000 N   0  0  0  0  0  0  0  0  0  0  0  0
    3.4022    0.1675    0.0000 N   0  0  0  0  0  0  0  0  0  0  0  0
    4.3083   -1.3880    0.0000 N   0  0  0  0  0  0  0  0  0  0  0  0
    7.8282   -1.3880    0.0000 N   0  0  0  0  0  0  0  0  0  0  0  0
    8.7343    0.1675    0.0000 N   0  0  0  0  0  0  0  0  0  0  0  0
    7.8167    1.6813    0.0000 N   0  0  0  0  0  0  0  0  0  0  0  0
    2.5381   -1.3775    0.0000 N   0  0  0  0  0  0  0  0  0  0  0  0
    9.5984   -1.3775    0.0000 N   0  0  0  0  0  0  0  0  0  0  0  0
    5.2022    0.1467    0.0000 C   0  0  0  0  0  0  0  0  0  0  0  0
    6.9343    0.1467    0.0000 C   0  0  0  0  0  0  0  0  0  0  0  0
    5.2022   -0.8533    0.0000 C   0  0  0  0  0  0  0  0  0  0  0  0
    6.9343   -0.8533    0.0000 C   0  0  0  0  0  0  0  0  0  0  0  0
    4.3083    0.6813    0.0000 C   0  0  0  0  0  0  0  0  0  0  0  0
    7.8282    0.6813    0.0000 C   0  0  0  0  0  0  0  0  0  0  0  0
    3.4022   -0.8741    0.0000 C   0  0  0  0  0  0  0  0  0  0  0  0
    8.7343   -0.8741    0.0000 C   0  0  0  0  0  0  0  0  0  0  0  0
    2.8665    0.4796    0.0000 H   0  0  0  0  0  0  0  0  0  0  0  0
    8.3500    1.9975    0.0000 H   0  0  0  0  0  0  0  0  0  0  0  0
    7.2762    1.9850    0.0000 H   0  0  0  0  0  0  0  0  0  0  0  0
    2.5405   -1.9975    0.0000 H   0  0  0  0  0  0  0  0  0  0  0  0
    2.0000   -1.0695    0.0000 H   0  0  0  0  0  0  0  0  0  0  0  0
   10.1365   -1.0695    0.0000 H   0  0  0  0  0  0  0  0  0  0  0  0
    9.5960   -1.9975    0.0000 H   0  0  0  0  0  0  0  0  0  0  0  0
  1 15  2  0  0  0  0
  2 11  2  0  0  0  0
  2 12  1  0  0  0  0
  3 13  2  0  0  0  0
  3 14  1  0  0  0  0
  4 15  1  0  0  0  0
  4 17  1  0  0  0  0
  4 19  1  0  0  0  0
  5 13  1  0  0  0  0
  5 17  2  0  0  0  0
  6 14  2  0  0  0  0
  6 18  1  0  0  0  0
  7 16  1  0  0  0  0
  7 18  2  0  0  0  0
  8 16  1  0  0  0  0
  8 20  1  0  0  0  0
  8 21  1  0  0  0  0
  9 17  1  0  0  0  0
  9 22  1  0  0  0  0
  9 23  1  0  0  0  0
 10 18  1  0  0  0  0
 10 24  1  0  0  0  0
 10 25  1  0  0  0  0
 11 13  1  0  0  0  0
 11 15  1  0  0  0  0
 12 14  1  0  0  0  0
 12 16  2  0  0  0  0
M  END
> <PUBCHEM_COMPOUND_CID>
135414252

> <PUBCHEM_COMPOUND_CANONICALIZED>
1

> <PUBCHEM_CACTVS_COMPLEXITY>
398

> <PUBCHEM_CACTVS_HBOND_ACCEPTOR>
8

> <PUBCHEM_CACTVS_HBOND_DONOR>
4

> <PUBCHEM_CACTVS_ROTATABLE_BOND>
0

> <PUBCHEM_CACTVS_SUBSKEYS>
AAADcYBz4AAAAAAAAAAAAAAAAAAAAAAAAAAsWIAAAAAAAACx+AAADgAQAAAACAgBlwAB8L7IEACoAQdwdACAgC0HEKABECGgVFCASEhASGAUBIgIAQLAAGAAAAAAAAAAAAAAAAAAAAAAAAAAAAAAAAAAAA==

> <PUBCHEM_IUPAC_OPENEYE_NAME>
2,4,8-triamino-7H-pyrimido[5,4-g]pteridin-6-one

> <PUBCHEM_IUPAC_CAS_NAME>
2,4,8-triamino-7H-pyrimido[5,4-g]pteridin-6-one

> <PUBCHEM_IUPAC_NAME_MARKUP>
2,4,8-triamino-7<I>H</I>-pyrimido[5,4-g]pteridin-6-one

> <PUBCHEM_IUPAC_NAME>
2,4,8-triamino-7H-pyrimido[5,4-g]pteridin-6-one

> <PUBCHEM_IUPAC_SYSTEMATIC_NAME>
2,4,8-tris(azanyl)-7H-pyrimido[5,4-g]pteridin-6-one

> <PUBCHEM_IUPAC_TRADITIONAL_NAME>
2,4,8-triamino-7H-pyrimido[5,4-g]pteridin-6-one

> <PUBCHEM_IUPAC_INCHI>
InChI=1S/C8H7N9O/c9-3-1-4(15-7(10)13-3)14-5-2(12-1)6(18)17-8(11)16-5/h(H7,9,10,11,13,14,15,16,17,18)

> <PUBCHEM_IUPAC_INCHIKEY>
HXRMXCGDMFVKRX-UHFFFAOYSA-N

> <PUBCHEM_XLOGP3_AA>
-2

> <PUBCHEM_EXACT_MASS>
245.07735588

> <PUBCHEM_MOLECULAR_FORMULA>
C8H7N9O

> <PUBCHEM_MOLECULAR_WEIGHT>
245.20

> <PUBCHEM_SMILES>
C12=C(N=C(N=C1N=C3C(=N2)C(=O)NC(=N3)N)N)N

> <PUBCHEM_OPENEYE_CAN_SMILES>
C12=C(N=C(N=C1N=C3C(=N2)C(=O)NC(=N3)N)N)N

> <PUBCHEM_OPENEYE_ISO_SMILES>
C12=C(N=C(N=C1N=C3C(=N2)C(=O)NC(=N3)N)N)N

> <PUBCHEM_CACTVS_TPSA>
171

> <PUBCHEM_MONOISOTOPIC_WEIGHT>
245.07735588

> <PUBCHEM_TOTAL_CHARGE>
0

> <PUBCHEM_HEAVY_ATOM_COUNT>
18

> <PUBCHEM_ATOM_DEF_STEREO_COUNT>
0

> <PUBCHEM_ATOM_UDEF_STEREO_COUNT>
0

> <PUBCHEM_BOND_DEF_STEREO_COUNT>
0

> <PUBCHEM_BOND_UDEF_STEREO_COUNT>
0

> <PUBCHEM_ISOTOPIC_ATOM_COUNT>
0

> <PUBCHEM_COMPONENT_COUNT>
1

> <PUBCHEM_CACTVS_TAUTO_COUNT>
-1

> <PUBCHEM_COORDINATE_TYPE>
1
5
255

> <PUBCHEM_BONDANNOTATIONS>
11  13  8
11  15  8
12  14  8
12  16  8
2  11  8
2  12  8
3  13  8
3  14  8
4  15  8
4  17  8
5  13  8
5  17  8
6  14  8
6  18  8
7  16  8
7  18  8

$$$$
