135414250
  -OEChem-04042512242D

 23 25  0     0  0  0  0  0  0999 V2000
    7.8167    1.8446    0.0000 O   0  0  0  0  0  0  0  0  0  0  0  0
    4.3198    1.8446    0.0000 O   0  0  0  0  0  0  0  0  0  0  0  0
    9.5984   -1.2141    0.0000 O   0  0  0  0  0  0  0  0  0  0  0  0
    7.8282   -1.2246    0.0000 N   0  0  0  0  0  0  0  0  0  0  0  0
    6.0682    0.8100    0.0000 N   0  0  0  0  0  0  0  0  0  0  0  0
    6.0682   -1.1900    0.0000 N   0  0  0  0  0  0  0  0  0  0  0  0
    8.7343    0.3308    0.0000 N   0  0  0  0  0  0  0  0  0  0  0  0
    3.4022    0.3308    0.0000 N   0  0  0  0  0  0  0  0  0  0  0  0
    4.3083   -1.2246    0.0000 N   0  0  0  0  0  0  0  0  0  0  0  0
    2.5381   -1.2141    0.0000 N   0  0  0  0  0  0  0  0  0  0  0  0
    6.9343    0.3100    0.0000 C   0  0  0  0  0  0  0  0  0  0  0  0
    6.9343   -0.6900    0.0000 C   0  0  0  0  0  0  0  0  0  0  0  0
    5.2022    0.3100    0.0000 C   0  0  0  0  0  0  0  0  0  0  0  0
    5.2022   -0.6900    0.0000 C   0  0  0  0  0  0  0  0  0  0  0  0
    7.8282    0.8447    0.0000 C   0  0  0  0  0  0  0  0  0  0  0  0
    4.3083    0.8447    0.0000 C   0  0  0  0  0  0  0  0  0  0  0  0
    8.7343   -0.7108    0.0000 C   0  0  0  0  0  0  0  0  0  0  0  0
    3.4022   -0.7108    0.0000 C   0  0  0  0  0  0  0  0  0  0  0  0
    7.8210   -1.8446    0.0000 H   0  0  0  0  0  0  0  0  0  0  0  0
    9.2700    0.6429    0.0000 H   0  0  0  0  0  0  0  0  0  0  0  0
    2.8665    0.6429    0.0000 H   0  0  0  0  0  0  0  0  0  0  0  0
    2.5405   -1.8341    0.0000 H   0  0  0  0  0  0  0  0  0  0  0  0
    2.0000   -0.9062    0.0000 H   0  0  0  0  0  0  0  0  0  0  0  0
  1 15  2  0  0  0  0
  2 16  2  0  0  0  0
  3 17  2  0  0  0  0
  4 12  1  0  0  0  0
  4 17  1  0  0  0  0
  4 19  1  0  0  0  0
  5 11  1  0  0  0  0
  5 13  2  0  0  0  0
  6 12  1  0  0  0  0
  6 14  2  0  0  0  0
  7 15  1  0  0  0  0
  7 17  1  0  0  0  0
  7 20  1  0  0  0  0
  8 16  1  0  0  0  0
  8 18  1  0  0  0  0
  8 21  1  0  0  0  0
  9 14  1  0  0  0  0
  9 18  2  0  0  0  0
 10 18  1  0  0  0  0
 10 22  1  0  0  0  0
 10 23  1  0  0  0  0
 11 12  2  0  0  0  0
 11 15  1  0  0  0  0
 13 14  1  0  0  0  0
 13 16  1  0  0  0  0
M  END
> <PUBCHEM_COMPOUND_CID>
135414250

> <PUBCHEM_COMPOUND_CANONICALIZED>
1

> <PUBCHEM_CACTVS_COMPLEXITY>
475

> <PUBCHEM_CACTVS_HBOND_ACCEPTOR>
6

> <PUBCHEM_CACTVS_HBOND_DONOR>
4

> <PUBCHEM_CACTVS_ROTATABLE_BOND>
0

> <PUBCHEM_CACTVS_SUBSKEYS>
AAADcYBzsAAAAAAAAAAAAAAAAAAAAAAAAAAsWIAAAAAAAACxgAAADgAQAAAACAgBlgABsBLIEACoAQdwdACAgC0HECABEAGgVECAQEhASCAUAIgIBSLAAGAAAAAAAAAAAAAAAAAAAAAAAAAAAAAAAAAAAA==

> <PUBCHEM_IUPAC_OPENEYE_NAME>
8-amino-1,7-dihydropyrimido[5,4-g]pteridine-2,4,6-trione

> <PUBCHEM_IUPAC_CAS_NAME>
8-amino-1,7-dihydropyrimido[5,4-g]pteridine-2,4,6-trione

> <PUBCHEM_IUPAC_NAME_MARKUP>
8-amino-1,7-dihydropyrimido[5,4-g]pteridine-2,4,6-trione

> <PUBCHEM_IUPAC_NAME>
8-amino-1,7-dihydropyrimido[5,4-g]pteridine-2,4,6-trione

> <PUBCHEM_IUPAC_SYSTEMATIC_NAME>
8-azanyl-1,7-dihydropyrimido[5,4-g]pteridine-2,4,6-trione

> <PUBCHEM_IUPAC_TRADITIONAL_NAME>
8-amino-1,7-dihydropyrimido[5,4-g]pteridine-2,4,6-trione

> <PUBCHEM_IUPAC_INCHI>
InChI=1S/C8H5N7O3/c9-7-12-3-1(5(16)14-7)10-2-4(11-3)13-8(18)15-6(2)17/h(H5,9,11,12,13,14,15,16,17,18)

> <PUBCHEM_IUPAC_INCHIKEY>
BFBJBFGVPKEJFI-UHFFFAOYSA-N

> <PUBCHEM_XLOGP3_AA>
-2.2

> <PUBCHEM_EXACT_MASS>
247.04538705

> <PUBCHEM_MOLECULAR_FORMULA>
C8H5N7O3

> <PUBCHEM_MOLECULAR_WEIGHT>
247.17

> <PUBCHEM_SMILES>
C12=C(NC(=O)NC1=O)N=C3C(=N2)C(=O)NC(=N3)N

> <PUBCHEM_OPENEYE_CAN_SMILES>
C12=C(NC(=O)NC1=O)N=C3C(=N2)C(=O)NC(=N3)N

> <PUBCHEM_OPENEYE_ISO_SMILES>
C12=C(NC(=O)NC1=O)N=C3C(=N2)C(=O)NC(=N3)N

> <PUBCHEM_CACTVS_TPSA>
151

> <PUBCHEM_MONOISOTOPIC_WEIGHT>
247.04538705

> <PUBCHEM_TOTAL_CHARGE>
0

> <PUBCHEM_HEAVY_ATOM_COUNT>
18

> <PUBCHEM_ATOM_DEF_STEREO_COUNT>
0

> <PUBCHEM_ATOM_UDEF_STEREO_COUNT>
0

> <PUBCHEM_BOND_DEF_STEREO_COUNT>
0

> <PUBCHEM_BOND_UDEF_STEREO_COUNT>
0

> <PUBCHEM_ISOTOPIC_ATOM_COUNT>
0

> <PUBCHEM_COMPONENT_COUNT>
1

> <PUBCHEM_CACTVS_TAUTO_COUNT>
-1

> <PUBCHEM_COORDINATE_TYPE>
1
5
255

> <PUBCHEM_BONDANNOTATIONS>
11  12  8
11  15  8
13  14  8
13  16  8
4  12  8
4  17  8
5  11  8
5  13  8
6  12  8
6  14  8
7  15  8
7  17  8
8  16  8
8  18  8
9  14  8
9  18  8

$$$$
