135565865
  -OEChem-04042512462D

 40 43  0     0  0  0  0  0  0999 V2000
    3.2872    1.7633    0.0000 O   0  0  0  0  0  0  0  0  0  0  0  0
    5.8041   -1.7520    0.0000 O   0  0  0  0  0  0  0  0  0  0  0  0
    3.0084    0.0032    0.0000 N   0  0  0  0  0  0  0  0  0  0  0  0
    6.0771    0.0032    0.0000 N   0  0  0  0  0  0  0  0  0  0  0  0
    4.5472    0.5032    0.0000 C   0  0  0  0  0  0  0  0  0  0  0  0
    4.5472   -0.4968    0.0000 C   0  0  0  0  0  0  0  0  0  0  0  0
    3.5962   -0.8058    0.0000 C   0  0  0  0  0  0  0  0  0  0  0  0
    5.4935    0.8079    0.0000 C   0  0  0  0  0  0  0  0  0  0  0  0
    3.5962    0.8122    0.0000 C   0  0  0  0  0  0  0  0  0  0  0  0
    3.2872   -1.7569    0.0000 C   0  0  0  0  0  0  0  0  0  0  0  0
    5.4935   -0.8015    0.0000 C   0  0  0  0  0  0  0  0  0  0  0  0
    5.8041    1.7585    0.0000 C   0  0  0  0  0  0  0  0  0  0  0  0
    2.3090   -1.9648    0.0000 C   0  0  0  0  0  0  0  0  0  0  0  0
    3.9563   -2.5000    0.0000 C   0  0  0  0  0  0  0  0  0  0  0  0
    5.1363    2.5028    0.0000 C   0  0  0  0  0  0  0  0  0  0  0  0
    6.7826    1.9647    0.0000 C   0  0  0  0  0  0  0  0  0  0  0  0
    2.6691   -3.6590    0.0000 C   0  0  0  0  0  0  0  0  0  0  0  0
    2.0000   -2.9158    0.0000 C   0  0  0  0  0  0  0  0  0  0  0  0
    3.6473   -3.4511    0.0000 C   0  0  0  0  0  0  0  0  0  0  0  0
    6.4254    3.6595    0.0000 C   0  0  0  0  0  0  0  0  0  0  0  0
    5.4469    3.4533    0.0000 C   0  0  0  0  0  0  0  0  0  0  0  0
    7.0933    2.9152    0.0000 C   0  0  0  0  0  0  0  0  0  0  0  0
    2.3601   -4.6100    0.0000 C   0  0  0  0  0  0  0  0  0  0  0  0
    6.7361    4.6100    0.0000 C   0  0  0  0  0  0  0  0  0  0  0  0
    2.3884    0.0032    0.0000 H   0  0  0  0  0  0  0  0  0  0  0  0
    1.8942   -1.5040    0.0000 H   0  0  0  0  0  0  0  0  0  0  0  0
    4.5628   -2.3711    0.0000 H   0  0  0  0  0  0  0  0  0  0  0  0
    4.5296    2.3749    0.0000 H   0  0  0  0  0  0  0  0  0  0  0  0
    7.1967    1.5032    0.0000 H   0  0  0  0  0  0  0  0  0  0  0  0
    1.3936   -3.0447    0.0000 H   0  0  0  0  0  0  0  0  0  0  0  0
    4.0621   -3.9118    0.0000 H   0  0  0  0  0  0  0  0  0  0  0  0
    5.0329    3.9148    0.0000 H   0  0  0  0  0  0  0  0  0  0  0  0
    7.7000    3.0431    0.0000 H   0  0  0  0  0  0  0  0  0  0  0  0
    2.6807    1.8922    0.0000 H   0  0  0  0  0  0  0  0  0  0  0  0
    1.7705   -4.4184    0.0000 H   0  0  0  0  0  0  0  0  0  0  0  0
    2.1685   -5.1997    0.0000 H   0  0  0  0  0  0  0  0  0  0  0  0
    2.9498   -4.8016    0.0000 H   0  0  0  0  0  0  0  0  0  0  0  0
    7.3254    4.4174    0.0000 H   0  0  0  0  0  0  0  0  0  0  0  0
    6.9287    5.1994    0.0000 H   0  0  0  0  0  0  0  0  0  0  0  0
    6.1468    4.8026    0.0000 H   0  0  0  0  0  0  0  0  0  0  0  0
  1  9  1  0  0  0  0
  1 34  1  0  0  0  0
  2 11  2  0  0  0  0
  3  7  1  0  0  0  0
  3  9  1  0  0  0  0
  3 25  1  0  0  0  0
  4  8  2  0  0  0  0
  4 11  1  0  0  0  0
  5  6  1  0  0  0  0
  5  8  1  0  0  0  0
  5  9  2  0  0  0  0
  6  7  2  0  0  0  0
  6 11  1  0  0  0  0
  7 10  1  0  0  0  0
  8 12  1  0  0  0  0
 10 13  2  0  0  0  0
 10 14  1  0  0  0  0
 12 15  2  0  0  0  0
 12 16  1  0  0  0  0
 13 18  1  0  0  0  0
 13 26  1  0  0  0  0
 14 19  2  0  0  0  0
 14 27  1  0  0  0  0
 15 21  1  0  0  0  0
 15 28  1  0  0  0  0
 16 22  2  0  0  0  0
 16 29  1  0  0  0  0
 17 18  2  0  0  0  0
 17 19  1  0  0  0  0
 17 23  1  0  0  0  0
 18 30  1  0  0  0  0
 19 31  1  0  0  0  0
 20 21  2  0  0  0  0
 20 22  1  0  0  0  0
 20 24  1  0  0  0  0
 21 32  1  0  0  0  0
 22 33  1  0  0  0  0
 23 35  1  0  0  0  0
 23 36  1  0  0  0  0
 23 37  1  0  0  0  0
 24 38  1  0  0  0  0
 24 39  1  0  0  0  0
 24 40  1  0  0  0  0
M  END
> <PUBCHEM_COMPOUND_CID>
135565865

> <PUBCHEM_COMPOUND_CANONICALIZED>
1

> <PUBCHEM_CACTVS_COMPLEXITY>
516

> <PUBCHEM_CACTVS_HBOND_ACCEPTOR>
2

> <PUBCHEM_CACTVS_HBOND_DONOR>
2

> <PUBCHEM_CACTVS_ROTATABLE_BOND>
2

> <PUBCHEM_CACTVS_SUBSKEYS>
AAADceB7MAAAAAAAAAAAAAAAAAAAAWIAAAAwYAAAAAAQAAAB0AAAHgAQCAAADAiBngAyhJLJkgCoAyVyVACCgCAlICAImSEkTN0IJvrC1ZOEcYhkwBHI2Ue+yPCOwAAAAAAAAACAAAAAAAAAAAAAAAAAAA==

> <PUBCHEM_IUPAC_OPENEYE_NAME>
3-hydroxy-1,4-bis(p-tolyl)-2H-pyrrolo[3,4-c]pyrrol-6-one

> <PUBCHEM_IUPAC_CAS_NAME>
3-hydroxy-1,4-bis(4-methylphenyl)-2H-pyrrolo[3,4-c]pyrrol-6-one

> <PUBCHEM_IUPAC_NAME_MARKUP>
3-hydroxy-1,4-bis(4-methylphenyl)-2<I>H</I>-pyrrolo[3,4-c]pyrrol-6-one

> <PUBCHEM_IUPAC_NAME>
3-hydroxy-1,4-bis(4-methylphenyl)-2H-pyrrolo[3,4-c]pyrrol-6-one

> <PUBCHEM_IUPAC_SYSTEMATIC_NAME>
1,4-bis(4-methylphenyl)-3-oxidanyl-2H-pyrrolo[3,4-c]pyrrol-6-one

> <PUBCHEM_IUPAC_TRADITIONAL_NAME>
3-hydroxy-1,4-bis(p-tolyl)-2H-pyrrolo[3,4-c]pyrrol-6-one

> <PUBCHEM_IUPAC_INCHI>
InChI=1S/C20H16N2O2/c1-11-3-7-13(8-4-11)17-15-16(20(24)21-17)18(22-19(15)23)14-9-5-12(2)6-10-14/h3-10,21,24H,1-2H3

> <PUBCHEM_IUPAC_INCHIKEY>
WBJVMPJVGWZAKW-UHFFFAOYSA-N

> <PUBCHEM_XLOGP3_AA>
4.1

> <PUBCHEM_EXACT_MASS>
316.121177757

> <PUBCHEM_MOLECULAR_FORMULA>
C20H16N2O2

> <PUBCHEM_MOLECULAR_WEIGHT>
316.4

> <PUBCHEM_SMILES>
CC1=CC=C(C=C1)C2=C3C(=C(N2)O)C(=NC3=O)C4=CC=C(C=C4)C

> <PUBCHEM_OPENEYE_CAN_SMILES>
CC1=CC=C(C=C1)C2=C3C(=C(N2)O)C(=NC3=O)C4=CC=C(C=C4)C

> <PUBCHEM_OPENEYE_ISO_SMILES>
CC1=CC=C(C=C1)C2=C3C(=C(N2)O)C(=NC3=O)C4=CC=C(C=C4)C

> <PUBCHEM_CACTVS_TPSA>
65.5

> <PUBCHEM_MONOISOTOPIC_WEIGHT>
316.121177757

> <PUBCHEM_TOTAL_CHARGE>
0

> <PUBCHEM_HEAVY_ATOM_COUNT>
24

> <PUBCHEM_ATOM_DEF_STEREO_COUNT>
0

> <PUBCHEM_ATOM_UDEF_STEREO_COUNT>
0

> <PUBCHEM_BOND_DEF_STEREO_COUNT>
0

> <PUBCHEM_BOND_UDEF_STEREO_COUNT>
0

> <PUBCHEM_ISOTOPIC_ATOM_COUNT>
0

> <PUBCHEM_COMPONENT_COUNT>
1

> <PUBCHEM_CACTVS_TAUTO_COUNT>
-1

> <PUBCHEM_COORDINATE_TYPE>
1
5
255

> <PUBCHEM_BONDANNOTATIONS>
10  13  8
10  14  8
12  15  8
12  16  8
13  18  8
14  19  8
15  21  8
16  22  8
17  18  8
17  19  8
20  21  8
20  22  8
3  7  8
3  9  8
5  6  8
5  9  8
6  7  8

$$$$
