135565960
  -OEChem-04042512242D

144147  0     0  0  0  0  0  0999 V2000
   13.5845   -4.6000    0.0000 S   0  0  0  0  0  0  0  0  0  0  0  0
   17.9605    4.6201    0.0000 S   0  0  0  0  0  0  0  0  0  0  0  0
   14.5115    1.7733    0.0000 O   0  0  0  0  0  0  0  0  0  0  0  0
   17.0285   -1.7420    0.0000 O   0  0  0  0  0  0  0  0  0  0  0  0
   14.2328    0.0132    0.0000 N   0  0  0  0  0  0  0  0  0  0  0  0
   17.3014    0.0132    0.0000 N   0  0  0  0  0  0  0  0  0  0  0  0
    7.4577   -9.4438    0.0000 C   0  0  0  0  0  0  0  0  0  0  0  0
   24.0957    9.4532    0.0000 C   0  0  0  0  0  0  0  0  0  0  0  0
    7.1487  -10.3948    0.0000 C   0  0  0  0  0  0  0  0  0  0  0  0
   24.4063   10.4038    0.0000 C   0  0  0  0  0  0  0  0  0  0  0  0
    8.4358   -9.2359    0.0000 C   0  0  0  0  0  0  0  0  0  0  0  0
   23.1171    9.2470    0.0000 C   0  0  0  0  0  0  0  0  0  0  0  0
    6.1705  -10.6027    0.0000 C   0  0  0  0  0  0  0  0  0  0  0  0
   25.3848   10.6100    0.0000 C   0  0  0  0  0  0  0  0  0  0  0  0
    8.7448   -8.2848    0.0000 C   0  0  0  0  0  0  0  0  0  0  0  0
   22.8065    8.2965    0.0000 C   0  0  0  0  0  0  0  0  0  0  0  0
    5.8615  -11.5538    0.0000 C   0  0  0  0  0  0  0  0  0  0  0  0
   25.6955   11.5605    0.0000 C   0  0  0  0  0  0  0  0  0  0  0  0
    9.7230   -8.0769    0.0000 C   0  0  0  0  0  0  0  0  0  0  0  0
   21.8280    8.0903    0.0000 C   0  0  0  0  0  0  0  0  0  0  0  0
    4.8834  -11.7617    0.0000 C   0  0  0  0  0  0  0  0  0  0  0  0
   26.6740   11.7667    0.0000 C   0  0  0  0  0  0  0  0  0  0  0  0
   10.0320   -7.1258    0.0000 C   0  0  0  0  0  0  0  0  0  0  0  0
   21.5173    7.1398    0.0000 C   0  0  0  0  0  0  0  0  0  0  0  0
    4.5743  -12.7128    0.0000 C   0  0  0  0  0  0  0  0  0  0  0  0
   26.9847   12.7172    0.0000 C   0  0  0  0  0  0  0  0  0  0  0  0
   11.0102   -6.9179    0.0000 C   0  0  0  0  0  0  0  0  0  0  0  0
   20.5388    6.9335    0.0000 C   0  0  0  0  0  0  0  0  0  0  0  0
    3.5962  -12.9207    0.0000 C   0  0  0  0  0  0  0  0  0  0  0  0
   27.9632   12.9235    0.0000 C   0  0  0  0  0  0  0  0  0  0  0  0
   11.3192   -5.9669    0.0000 C   0  0  0  0  0  0  0  0  0  0  0  0
   20.2281    5.9830    0.0000 C   0  0  0  0  0  0  0  0  0  0  0  0
    3.2872  -13.8717    0.0000 C   0  0  0  0  0  0  0  0  0  0  0  0
   28.2738   13.8740    0.0000 C   0  0  0  0  0  0  0  0  0  0  0  0
   12.2973   -5.7590    0.0000 C   0  0  0  0  0  0  0  0  0  0  0  0
   19.2496    5.7768    0.0000 C   0  0  0  0  0  0  0  0  0  0  0  0
    2.3090  -14.0797    0.0000 C   0  0  0  0  0  0  0  0  0  0  0  0
   29.2523   14.0802    0.0000 C   0  0  0  0  0  0  0  0  0  0  0  0
   12.6063   -4.8079    0.0000 C   0  0  0  0  0  0  0  0  0  0  0  0
   18.9390    4.8263    0.0000 C   0  0  0  0  0  0  0  0  0  0  0  0
    2.0000  -15.0307    0.0000 C   0  0  0  0  0  0  0  0  0  0  0  0
   29.5630   15.0307    0.0000 C   0  0  0  0  0  0  0  0  0  0  0  0
   13.8935   -3.6489    0.0000 C   0  0  0  0  0  0  0  0  0  0  0  0
   17.6498    3.6695    0.0000 C   0  0  0  0  0  0  0  0  0  0  0  0
   15.7716    0.5132    0.0000 C   0  0  0  0  0  0  0  0  0  0  0  0
   15.7716   -0.4868    0.0000 C   0  0  0  0  0  0  0  0  0  0  0  0
   14.8205   -0.7958    0.0000 C   0  0  0  0  0  0  0  0  0  0  0  0
   16.7178    0.8180    0.0000 C   0  0  0  0  0  0  0  0  0  0  0  0
   14.5115   -1.7468    0.0000 C   0  0  0  0  0  0  0  0  0  0  0  0
   17.0285    1.7685    0.0000 C   0  0  0  0  0  0  0  0  0  0  0  0
   14.8205    0.8223    0.0000 C   0  0  0  0  0  0  0  0  0  0  0  0
   13.2244   -2.9058    0.0000 C   0  0  0  0  0  0  0  0  0  0  0  0
   14.8716   -3.4410    0.0000 C   0  0  0  0  0  0  0  0  0  0  0  0
   18.3177    2.9252    0.0000 C   0  0  0  0  0  0  0  0  0  0  0  0
   16.6713    3.4633    0.0000 C   0  0  0  0  0  0  0  0  0  0  0  0
   13.5334   -1.9547    0.0000 C   0  0  0  0  0  0  0  0  0  0  0  0
   15.1807   -2.4900    0.0000 C   0  0  0  0  0  0  0  0  0  0  0  0
   16.7178   -0.7915    0.0000 C   0  0  0  0  0  0  0  0  0  0  0  0
   18.0070    1.9747    0.0000 C   0  0  0  0  0  0  0  0  0  0  0  0
   16.3606    2.5128    0.0000 C   0  0  0  0  0  0  0  0  0  0  0  0
    7.4360   -8.8242    0.0000 H   0  0  0  0  0  0  0  0  0  0  0  0
    6.8437   -9.3575    0.0000 H   0  0  0  0  0  0  0  0  0  0  0  0
   24.1162    8.8336    0.0000 H   0  0  0  0  0  0  0  0  0  0  0  0
   24.7095    9.3659    0.0000 H   0  0  0  0  0  0  0  0  0  0  0  0
    7.1703  -11.0145    0.0000 H   0  0  0  0  0  0  0  0  0  0  0  0
    7.7626  -10.4811    0.0000 H   0  0  0  0  0  0  0  0  0  0  0  0
   24.3858   11.0234    0.0000 H   0  0  0  0  0  0  0  0  0  0  0  0
   23.7925   10.4911    0.0000 H   0  0  0  0  0  0  0  0  0  0  0  0
    8.4575   -9.8555    0.0000 H   0  0  0  0  0  0  0  0  0  0  0  0
    9.0498   -9.3222    0.0000 H   0  0  0  0  0  0  0  0  0  0  0  0
   23.0966    9.8667    0.0000 H   0  0  0  0  0  0  0  0  0  0  0  0
   22.5033    9.3344    0.0000 H   0  0  0  0  0  0  0  0  0  0  0  0
    6.1489   -9.9831    0.0000 H   0  0  0  0  0  0  0  0  0  0  0  0
    5.5565  -10.5165    0.0000 H   0  0  0  0  0  0  0  0  0  0  0  0
   25.4054    9.9903    0.0000 H   0  0  0  0  0  0  0  0  0  0  0  0
   25.9986   10.5226    0.0000 H   0  0  0  0  0  0  0  0  0  0  0  0
    8.7232   -7.6652    0.0000 H   0  0  0  0  0  0  0  0  0  0  0  0
    8.1309   -8.1985    0.0000 H   0  0  0  0  0  0  0  0  0  0  0  0
   22.8271    7.6768    0.0000 H   0  0  0  0  0  0  0  0  0  0  0  0
   23.4203    8.2092    0.0000 H   0  0  0  0  0  0  0  0  0  0  0  0
    5.8831  -12.1734    0.0000 H   0  0  0  0  0  0  0  0  0  0  0  0
    6.4755  -11.6401    0.0000 H   0  0  0  0  0  0  0  0  0  0  0  0
   25.6749   12.1802    0.0000 H   0  0  0  0  0  0  0  0  0  0  0  0
   25.0817   11.6478    0.0000 H   0  0  0  0  0  0  0  0  0  0  0  0
    9.7446   -8.6965    0.0000 H   0  0  0  0  0  0  0  0  0  0  0  0
   10.3370   -8.1632    0.0000 H   0  0  0  0  0  0  0  0  0  0  0  0
   21.8074    8.7099    0.0000 H   0  0  0  0  0  0  0  0  0  0  0  0
   21.2142    8.1776    0.0000 H   0  0  0  0  0  0  0  0  0  0  0  0
    4.8617  -11.1421    0.0000 H   0  0  0  0  0  0  0  0  0  0  0  0
    4.2694  -11.6754    0.0000 H   0  0  0  0  0  0  0  0  0  0  0  0
   26.6946   11.1471    0.0000 H   0  0  0  0  0  0  0  0  0  0  0  0
   27.2878   11.6794    0.0000 H   0  0  0  0  0  0  0  0  0  0  0  0
   10.0104   -6.5062    0.0000 H   0  0  0  0  0  0  0  0  0  0  0  0
    9.4180   -7.0396    0.0000 H   0  0  0  0  0  0  0  0  0  0  0  0
   21.5379    6.5201    0.0000 H   0  0  0  0  0  0  0  0  0  0  0  0
   22.1311    7.0524    0.0000 H   0  0  0  0  0  0  0  0  0  0  0  0
    4.5960  -13.3324    0.0000 H   0  0  0  0  0  0  0  0  0  0  0  0
    5.1883  -12.7991    0.0000 H   0  0  0  0  0  0  0  0  0  0  0  0
   26.9641   13.3369    0.0000 H   0  0  0  0  0  0  0  0  0  0  0  0
   26.3708   12.8046    0.0000 H   0  0  0  0  0  0  0  0  0  0  0  0
   11.0318   -7.5376    0.0000 H   0  0  0  0  0  0  0  0  0  0  0  0
   11.6241   -7.0042    0.0000 H   0  0  0  0  0  0  0  0  0  0  0  0
   20.5182    7.5532    0.0000 H   0  0  0  0  0  0  0  0  0  0  0  0
   19.9250    7.0209    0.0000 H   0  0  0  0  0  0  0  0  0  0  0  0
    3.5745  -12.3011    0.0000 H   0  0  0  0  0  0  0  0  0  0  0  0
    2.9822  -12.8344    0.0000 H   0  0  0  0  0  0  0  0  0  0  0  0
   27.9837   12.3038    0.0000 H   0  0  0  0  0  0  0  0  0  0  0  0
   28.5770   12.8361    0.0000 H   0  0  0  0  0  0  0  0  0  0  0  0
   11.2975   -5.3472    0.0000 H   0  0  0  0  0  0  0  0  0  0  0  0
   10.7052   -5.8806    0.0000 H   0  0  0  0  0  0  0  0  0  0  0  0
   20.2487    5.3634    0.0000 H   0  0  0  0  0  0  0  0  0  0  0  0
   20.8420    5.8957    0.0000 H   0  0  0  0  0  0  0  0  0  0  0  0
    3.3088  -14.4914    0.0000 H   0  0  0  0  0  0  0  0  0  0  0  0
    3.9011  -13.9580    0.0000 H   0  0  0  0  0  0  0  0  0  0  0  0
   28.2533   14.4936    0.0000 H   0  0  0  0  0  0  0  0  0  0  0  0
   27.6600   13.9613    0.0000 H   0  0  0  0  0  0  0  0  0  0  0  0
   12.3190   -6.3786    0.0000 H   0  0  0  0  0  0  0  0  0  0  0  0
   12.9113   -5.8452    0.0000 H   0  0  0  0  0  0  0  0  0  0  0  0
   19.2291    6.3965    0.0000 H   0  0  0  0  0  0  0  0  0  0  0  0
   18.6358    5.8642    0.0000 H   0  0  0  0  0  0  0  0  0  0  0  0
    2.2874  -13.4600    0.0000 H   0  0  0  0  0  0  0  0  0  0  0  0
    1.6950  -13.9934    0.0000 H   0  0  0  0  0  0  0  0  0  0  0  0
   29.2729   13.4605    0.0000 H   0  0  0  0  0  0  0  0  0  0  0  0
   29.8661   13.9928    0.0000 H   0  0  0  0  0  0  0  0  0  0  0  0
   12.5847   -4.1883    0.0000 H   0  0  0  0  0  0  0  0  0  0  0  0
   11.9924   -4.7216    0.0000 H   0  0  0  0  0  0  0  0  0  0  0  0
   18.9595    4.2066    0.0000 H   0  0  0  0  0  0  0  0  0  0  0  0
   19.5528    4.7389    0.0000 H   0  0  0  0  0  0  0  0  0  0  0  0
    1.4103  -14.8391    0.0000 H   0  0  0  0  0  0  0  0  0  0  0  0
    1.8084  -15.6204    0.0000 H   0  0  0  0  0  0  0  0  0  0  0  0
    2.5897  -15.2223    0.0000 H   0  0  0  0  0  0  0  0  0  0  0  0
   30.1523   14.8381    0.0000 H   0  0  0  0  0  0  0  0  0  0  0  0
   29.7556   15.6200    0.0000 H   0  0  0  0  0  0  0  0  0  0  0  0
   28.9737   15.2233    0.0000 H   0  0  0  0  0  0  0  0  0  0  0  0
   13.6128    0.0132    0.0000 H   0  0  0  0  0  0  0  0  0  0  0  0
   12.6179   -3.0347    0.0000 H   0  0  0  0  0  0  0  0  0  0  0  0
   15.2865   -3.9018    0.0000 H   0  0  0  0  0  0  0  0  0  0  0  0
   18.9243    3.0531    0.0000 H   0  0  0  0  0  0  0  0  0  0  0  0
   16.2572    3.9248    0.0000 H   0  0  0  0  0  0  0  0  0  0  0  0
   13.1185   -1.4940    0.0000 H   0  0  0  0  0  0  0  0  0  0  0  0
   15.7871   -2.3611    0.0000 H   0  0  0  0  0  0  0  0  0  0  0  0
   18.4211    1.5132    0.0000 H   0  0  0  0  0  0  0  0  0  0  0  0
   15.7540    2.3849    0.0000 H   0  0  0  0  0  0  0  0  0  0  0  0
   13.9051    1.9022    0.0000 H   0  0  0  0  0  0  0  0  0  0  0  0
  1 39  1  0  0  0  0
  1 43  1  0  0  0  0
  2 40  1  0  0  0  0
  2 44  1  0  0  0  0
  3 51  1  0  0  0  0
  3144  1  0  0  0  0
  4 58  2  0  0  0  0
  5 47  1  0  0  0  0
  5 51  1  0  0  0  0
  5135  1  0  0  0  0
  6 48  2  0  0  0  0
  6 58  1  0  0  0  0
  7  9  1  0  0  0  0
  7 11  1  0  0  0  0
  7 61  1  0  0  0  0
  7 62  1  0  0  0  0
  8 10  1  0  0  0  0
  8 12  1  0  0  0  0
  8 63  1  0  0  0  0
  8 64  1  0  0  0  0
  9 13  1  0  0  0  0
  9 65  1  0  0  0  0
  9 66  1  0  0  0  0
 10 14  1  0  0  0  0
 10 67  1  0  0  0  0
 10 68  1  0  0  0  0
 11 15  1  0  0  0  0
 11 69  1  0  0  0  0
 11 70  1  0  0  0  0
 12 16  1  0  0  0  0
 12 71  1  0  0  0  0
 12 72  1  0  0  0  0
 13 17  1  0  0  0  0
 13 73  1  0  0  0  0
 13 74  1  0  0  0  0
 14 18  1  0  0  0  0
 14 75  1  0  0  0  0
 14 76  1  0  0  0  0
 15 19  1  0  0  0  0
 15 77  1  0  0  0  0
 15 78  1  0  0  0  0
 16 20  1  0  0  0  0
 16 79  1  0  0  0  0
 16 80  1  0  0  0  0
 17 21  1  0  0  0  0
 17 81  1  0  0  0  0
 17 82  1  0  0  0  0
 18 22  1  0  0  0  0
 18 83  1  0  0  0  0
 18 84  1  0  0  0  0
 19 23  1  0  0  0  0
 19 85  1  0  0  0  0
 19 86  1  0  0  0  0
 20 24  1  0  0  0  0
 20 87  1  0  0  0  0
 20 88  1  0  0  0  0
 21 25  1  0  0  0  0
 21 89  1  0  0  0  0
 21 90  1  0  0  0  0
 22 26  1  0  0  0  0
 22 91  1  0  0  0  0
 22 92  1  0  0  0  0
 23 27  1  0  0  0  0
 23 93  1  0  0  0  0
 23 94  1  0  0  0  0
 24 28  1  0  0  0  0
 24 95  1  0  0  0  0
 24 96  1  0  0  0  0
 25 29  1  0  0  0  0
 25 97  1  0  0  0  0
 25 98  1  0  0  0  0
 26 30  1  0  0  0  0
 26 99  1  0  0  0  0
 26100  1  0  0  0  0
 27 31  1  0  0  0  0
 27101  1  0  0  0  0
 27102  1  0  0  0  0
 28 32  1  0  0  0  0
 28103  1  0  0  0  0
 28104  1  0  0  0  0
 29 33  1  0  0  0  0
 29105  1  0  0  0  0
 29106  1  0  0  0  0
 30 34  1  0  0  0  0
 30107  1  0  0  0  0
 30108  1  0  0  0  0
 31 35  1  0  0  0  0
 31109  1  0  0  0  0
 31110  1  0  0  0  0
 32 36  1  0  0  0  0
 32111  1  0  0  0  0
 32112  1  0  0  0  0
 33 37  1  0  0  0  0
 33113  1  0  0  0  0
 33114  1  0  0  0  0
 34 38  1  0  0  0  0
 34115  1  0  0  0  0
 34116  1  0  0  0  0
 35 39  1  0  0  0  0
 35117  1  0  0  0  0
 35118  1  0  0  0  0
 36 40  1  0  0  0  0
 36119  1  0  0  0  0
 36120  1  0  0  0  0
 37 41  1  0  0  0  0
 37121  1  0  0  0  0
 37122  1  0  0  0  0
 38 42  1  0  0  0  0
 38123  1  0  0  0  0
 38124  1  0  0  0  0
 39125  1  0  0  0  0
 39126  1  0  0  0  0
 40127  1  0  0  0  0
 40128  1  0  0  0  0
 41129  1  0  0  0  0
 41130  1  0  0  0  0
 41131  1  0  0  0  0
 42132  1  0  0  0  0
 42133  1  0  0  0  0
 42134  1  0  0  0  0
 43 52  2  0  0  0  0
 43 53  1  0  0  0  0
 44 54  2  0  0  0  0
 44 55  1  0  0  0  0
 45 46  1  0  0  0  0
 45 48  1  0  0  0  0
 45 51  2  0  0  0  0
 46 47  2  0  0  0  0
 46 58  1  0  0  0  0
 47 49  1  0  0  0  0
 48 50  1  0  0  0  0
 49 56  2  0  0  0  0
 49 57  1  0  0  0  0
 50 59  2  0  0  0  0
 50 60  1  0  0  0  0
 52 56  1  0  0  0  0
 52136  1  0  0  0  0
 53 57  2  0  0  0  0
 53137  1  0  0  0  0
 54 59  1  0  0  0  0
 54138  1  0  0  0  0
 55 60  2  0  0  0  0
 55139  1  0  0  0  0
 56140  1  0  0  0  0
 57141  1  0  0  0  0
 59142  1  0  0  0  0
 60143  1  0  0  0  0
M  END
> <PUBCHEM_COMPOUND_CID>
135565960

> <PUBCHEM_COMPOUND_CANONICALIZED>
1

> <PUBCHEM_CACTVS_COMPLEXITY>
1070

> <PUBCHEM_CACTVS_HBOND_ACCEPTOR>
4

> <PUBCHEM_CACTVS_HBOND_DONOR>
2

> <PUBCHEM_CACTVS_ROTATABLE_BOND>
38

> <PUBCHEM_CACTVS_SUBSKEYS>
AAADcfB/MABgAAAAAAAAAAAAAAAAAWIAAAAwYAAAAAAQAAAB0AAAHgQQCAAADAiF3gCyhZLJkgioAyVyVACCgCAlKDAImTkkTN0IJvri1ZOEcYhkwBHo2Ue+yPCOkAAAAAAAAAAgAAAAAAAAAAAAAAAAAA==

> <PUBCHEM_IUPAC_OPENEYE_NAME>
3-hydroxy-1,4-bis(4-octadecylsulfanylphenyl)-2H-pyrrolo[3,4-c]pyrrol-6-one

> <PUBCHEM_IUPAC_CAS_NAME>
3-hydroxy-1,4-bis[4-(octadecylthio)phenyl]-2H-pyrrolo[3,4-c]pyrrol-6-one

> <PUBCHEM_IUPAC_NAME_MARKUP>
3-hydroxy-1,4-bis(4-octadecylsulfanylphenyl)-2<I>H</I>-pyrrolo[3,4-c]pyrrol-6-one

> <PUBCHEM_IUPAC_NAME>
3-hydroxy-1,4-bis(4-octadecylsulfanylphenyl)-2H-pyrrolo[3,4-c]pyrrol-6-one

> <PUBCHEM_IUPAC_SYSTEMATIC_NAME>
1,4-bis(4-octadecylsulfanylphenyl)-3-oxidanyl-2H-pyrrolo[3,4-c]pyrrol-6-one

> <PUBCHEM_IUPAC_TRADITIONAL_NAME>
3-hydroxy-1,4-bis[4-(stearylthio)phenyl]-2H-pyrrolo[3,4-c]pyrrol-6-one

> <PUBCHEM_IUPAC_INCHI>
InChI=1S/C54H84N2O2S2/c1-3-5-7-9-11-13-15-17-19-21-23-25-27-29-31-33-43-59-47-39-35-45(36-40-47)51-49-50(54(58)55-51)52(56-53(49)57)46-37-41-48(42-38-46)60-44-34-32-30-28-26-24-22-20-18-16-14-12-10-8-6-4-2/h35-42,55,58H,3-34,43-44H2,1-2H3

> <PUBCHEM_IUPAC_INCHIKEY>
OECIMFUOKDGJQO-UHFFFAOYSA-N

> <PUBCHEM_XLOGP3_AA>
22.1

> <PUBCHEM_EXACT_MASS>
856.59742227

> <PUBCHEM_MOLECULAR_FORMULA>
C54H84N2O2S2

> <PUBCHEM_MOLECULAR_WEIGHT>
857.4

> <PUBCHEM_SMILES>
CCCCCCCCCCCCCCCCCCSC1=CC=C(C=C1)C2=C3C(=C(N2)O)C(=NC3=O)C4=CC=C(C=C4)SCCCCCCCCCCCCCCCCCC

> <PUBCHEM_OPENEYE_CAN_SMILES>
CCCCCCCCCCCCCCCCCCSC1=CC=C(C=C1)C2=C3C(=C(N2)O)C(=NC3=O)C4=CC=C(C=C4)SCCCCCCCCCCCCCCCCCC

> <PUBCHEM_OPENEYE_ISO_SMILES>
CCCCCCCCCCCCCCCCCCSC1=CC=C(C=C1)C2=C3C(=C(N2)O)C(=NC3=O)C4=CC=C(C=C4)SCCCCCCCCCCCCCCCCCC

> <PUBCHEM_CACTVS_TPSA>
116

> <PUBCHEM_MONOISOTOPIC_WEIGHT>
856.59742227

> <PUBCHEM_TOTAL_CHARGE>
0

> <PUBCHEM_HEAVY_ATOM_COUNT>
60

> <PUBCHEM_ATOM_DEF_STEREO_COUNT>
0

> <PUBCHEM_ATOM_UDEF_STEREO_COUNT>
0

> <PUBCHEM_BOND_DEF_STEREO_COUNT>
0

> <PUBCHEM_BOND_UDEF_STEREO_COUNT>
0

> <PUBCHEM_ISOTOPIC_ATOM_COUNT>
0

> <PUBCHEM_COMPONENT_COUNT>
1

> <PUBCHEM_CACTVS_TAUTO_COUNT>
-1

> <PUBCHEM_COORDINATE_TYPE>
1
5
255

> <PUBCHEM_BONDANNOTATIONS>
43  52  8
43  53  8
44  54  8
44  55  8
45  46  8
45  51  8
46  47  8
49  56  8
49  57  8
5  47  8
5  51  8
50  59  8
50  60  8
52  56  8
53  57  8
54  59  8
55  60  8

$$$$
