135565735
  -OEChem-04042512282D

112115  0     0  0  0  0  0  0999 V2000
    9.7230   -3.1159    0.0000 S   0  0  0  0  0  0  0  0  0  0  0  0
   16.7729    3.1293    0.0000 S   0  0  0  0  0  0  0  0  0  0  0  0
    9.9309   -4.0940    0.0000 O   0  0  0  0  0  0  0  0  0  0  0  0
    9.5151   -2.1378    0.0000 O   0  0  0  0  0  0  0  0  0  0  0  0
   16.5667    4.1078    0.0000 O   0  0  0  0  0  0  0  0  0  0  0  0
   16.9791    2.1508    0.0000 O   0  0  0  0  0  0  0  0  0  0  0  0
   11.9883    1.7711    0.0000 O   0  0  0  0  0  0  0  0  0  0  0  0
   14.5053   -1.7442    0.0000 O   0  0  0  0  0  0  0  0  0  0  0  0
   11.7095    0.0111    0.0000 N   0  0  0  0  0  0  0  0  0  0  0  0
   14.7782    0.0111    0.0000 N   0  0  0  0  0  0  0  0  0  0  0  0
    6.1705   -5.6417    0.0000 C   0  0  0  0  0  0  0  0  0  0  0  0
    7.1487   -5.4338    0.0000 C   0  0  0  0  0  0  0  0  0  0  0  0
   20.3298    5.6490    0.0000 C   0  0  0  0  0  0  0  0  0  0  0  0
   19.3513    5.4428    0.0000 C   0  0  0  0  0  0  0  0  0  0  0  0
    5.8615   -6.5928    0.0000 C   0  0  0  0  0  0  0  0  0  0  0  0
   20.6404    6.5995    0.0000 C   0  0  0  0  0  0  0  0  0  0  0  0
    7.4577   -4.4828    0.0000 C   0  0  0  0  0  0  0  0  0  0  0  0
   19.0406    4.4922    0.0000 C   0  0  0  0  0  0  0  0  0  0  0  0
    4.8834   -6.8007    0.0000 C   0  0  0  0  0  0  0  0  0  0  0  0
   21.6189    6.8057    0.0000 C   0  0  0  0  0  0  0  0  0  0  0  0
    8.4358   -4.2749    0.0000 C   0  0  0  0  0  0  0  0  0  0  0  0
   18.0621    4.2860    0.0000 C   0  0  0  0  0  0  0  0  0  0  0  0
    4.5743   -7.7518    0.0000 C   0  0  0  0  0  0  0  0  0  0  0  0
   21.9296    7.7562    0.0000 C   0  0  0  0  0  0  0  0  0  0  0  0
    8.7448   -3.3238    0.0000 C   0  0  0  0  0  0  0  0  0  0  0  0
   17.7514    3.3355    0.0000 C   0  0  0  0  0  0  0  0  0  0  0  0
    3.5962   -7.9597    0.0000 C   0  0  0  0  0  0  0  0  0  0  0  0
   22.9081    7.9624    0.0000 C   0  0  0  0  0  0  0  0  0  0  0  0
    3.2872   -8.9107    0.0000 C   0  0  0  0  0  0  0  0  0  0  0  0
   23.2188    8.9130    0.0000 C   0  0  0  0  0  0  0  0  0  0  0  0
   10.7011   -2.9080    0.0000 C   0  0  0  0  0  0  0  0  0  0  0  0
   15.7944    2.9230    0.0000 C   0  0  0  0  0  0  0  0  0  0  0  0
   12.2973   -0.7980    0.0000 C   0  0  0  0  0  0  0  0  0  0  0  0
   13.2484    0.5111    0.0000 C   0  0  0  0  0  0  0  0  0  0  0  0
   13.2484   -0.4889    0.0000 C   0  0  0  0  0  0  0  0  0  0  0  0
    2.3090   -9.1186    0.0000 C   0  0  0  0  0  0  0  0  0  0  0  0
   24.1973    9.1192    0.0000 C   0  0  0  0  0  0  0  0  0  0  0  0
   11.9883   -1.7490    0.0000 C   0  0  0  0  0  0  0  0  0  0  0  0
   14.1946    0.8158    0.0000 C   0  0  0  0  0  0  0  0  0  0  0  0
   11.0102   -1.9569    0.0000 C   0  0  0  0  0  0  0  0  0  0  0  0
   14.5053    1.7663    0.0000 C   0  0  0  0  0  0  0  0  0  0  0  0
   15.4838    1.9725    0.0000 C   0  0  0  0  0  0  0  0  0  0  0  0
   12.2973    0.8201    0.0000 C   0  0  0  0  0  0  0  0  0  0  0  0
   11.3703   -3.6511    0.0000 C   0  0  0  0  0  0  0  0  0  0  0  0
   15.1266    3.6674    0.0000 C   0  0  0  0  0  0  0  0  0  0  0  0
   14.1946   -0.7937    0.0000 C   0  0  0  0  0  0  0  0  0  0  0  0
   12.6574   -2.4922    0.0000 C   0  0  0  0  0  0  0  0  0  0  0  0
   13.8374    2.5106    0.0000 C   0  0  0  0  0  0  0  0  0  0  0  0
   12.3484   -3.4432    0.0000 C   0  0  0  0  0  0  0  0  0  0  0  0
    2.0000  -10.0697    0.0000 C   0  0  0  0  0  0  0  0  0  0  0  0
   24.5079   10.0697    0.0000 C   0  0  0  0  0  0  0  0  0  0  0  0
   14.1481    3.4611    0.0000 C   0  0  0  0  0  0  0  0  0  0  0  0
    6.1489   -5.0221    0.0000 H   0  0  0  0  0  0  0  0  0  0  0  0
    5.5565   -5.5555    0.0000 H   0  0  0  0  0  0  0  0  0  0  0  0
    7.1703   -6.0534    0.0000 H   0  0  0  0  0  0  0  0  0  0  0  0
    7.7626   -5.5201    0.0000 H   0  0  0  0  0  0  0  0  0  0  0  0
   20.3503    5.0293    0.0000 H   0  0  0  0  0  0  0  0  0  0  0  0
   20.9436    5.5616    0.0000 H   0  0  0  0  0  0  0  0  0  0  0  0
   19.3307    6.0624    0.0000 H   0  0  0  0  0  0  0  0  0  0  0  0
   18.7375    5.5301    0.0000 H   0  0  0  0  0  0  0  0  0  0  0  0
    5.8831   -7.2124    0.0000 H   0  0  0  0  0  0  0  0  0  0  0  0
    6.4755   -6.6791    0.0000 H   0  0  0  0  0  0  0  0  0  0  0  0
   20.6199    7.2192    0.0000 H   0  0  0  0  0  0  0  0  0  0  0  0
   20.0266    6.6868    0.0000 H   0  0  0  0  0  0  0  0  0  0  0  0
    7.4360   -3.8632    0.0000 H   0  0  0  0  0  0  0  0  0  0  0  0
    6.8437   -4.3965    0.0000 H   0  0  0  0  0  0  0  0  0  0  0  0
   19.0612    3.8726    0.0000 H   0  0  0  0  0  0  0  0  0  0  0  0
   19.6544    4.4049    0.0000 H   0  0  0  0  0  0  0  0  0  0  0  0
    4.8617   -6.1811    0.0000 H   0  0  0  0  0  0  0  0  0  0  0  0
    4.2694   -6.7144    0.0000 H   0  0  0  0  0  0  0  0  0  0  0  0
   21.6395    6.1860    0.0000 H   0  0  0  0  0  0  0  0  0  0  0  0
   22.2328    6.7184    0.0000 H   0  0  0  0  0  0  0  0  0  0  0  0
    8.4575   -4.8945    0.0000 H   0  0  0  0  0  0  0  0  0  0  0  0
    9.0498   -4.3612    0.0000 H   0  0  0  0  0  0  0  0  0  0  0  0
   18.0415    4.9057    0.0000 H   0  0  0  0  0  0  0  0  0  0  0  0
   17.4483    4.3734    0.0000 H   0  0  0  0  0  0  0  0  0  0  0  0
    4.5960   -8.3714    0.0000 H   0  0  0  0  0  0  0  0  0  0  0  0
    5.1883   -7.8380    0.0000 H   0  0  0  0  0  0  0  0  0  0  0  0
   21.9090    8.3759    0.0000 H   0  0  0  0  0  0  0  0  0  0  0  0
   21.3158    7.8436    0.0000 H   0  0  0  0  0  0  0  0  0  0  0  0
    8.7232   -2.7042    0.0000 H   0  0  0  0  0  0  0  0  0  0  0  0
    8.1309   -3.2375    0.0000 H   0  0  0  0  0  0  0  0  0  0  0  0
   17.7720    2.7158    0.0000 H   0  0  0  0  0  0  0  0  0  0  0  0
   18.3653    3.2481    0.0000 H   0  0  0  0  0  0  0  0  0  0  0  0
    3.5745   -7.3401    0.0000 H   0  0  0  0  0  0  0  0  0  0  0  0
    2.9822   -7.8734    0.0000 H   0  0  0  0  0  0  0  0  0  0  0  0
   22.9287    7.3428    0.0000 H   0  0  0  0  0  0  0  0  0  0  0  0
   23.5219    7.8751    0.0000 H   0  0  0  0  0  0  0  0  0  0  0  0
    3.3088   -9.5304    0.0000 H   0  0  0  0  0  0  0  0  0  0  0  0
    3.9011   -8.9970    0.0000 H   0  0  0  0  0  0  0  0  0  0  0  0
   23.1982    9.5326    0.0000 H   0  0  0  0  0  0  0  0  0  0  0  0
   22.6050    9.0003    0.0000 H   0  0  0  0  0  0  0  0  0  0  0  0
    2.2874   -8.4990    0.0000 H   0  0  0  0  0  0  0  0  0  0  0  0
    1.6950   -9.0324    0.0000 H   0  0  0  0  0  0  0  0  0  0  0  0
   24.2178    8.4995    0.0000 H   0  0  0  0  0  0  0  0  0  0  0  0
   24.8111    9.0318    0.0000 H   0  0  0  0  0  0  0  0  0  0  0  0
   10.5953   -1.4962    0.0000 H   0  0  0  0  0  0  0  0  0  0  0  0
   15.8978    1.5111    0.0000 H   0  0  0  0  0  0  0  0  0  0  0  0
   11.1787   -4.2408    0.0000 H   0  0  0  0  0  0  0  0  0  0  0  0
   11.0895    0.0111    0.0000 H   0  0  0  0  0  0  0  0  0  0  0  0
   15.3192    4.2567    0.0000 H   0  0  0  0  0  0  0  0  0  0  0  0
   13.2639   -2.3632    0.0000 H   0  0  0  0  0  0  0  0  0  0  0  0
   13.2307    2.3828    0.0000 H   0  0  0  0  0  0  0  0  0  0  0  0
   12.7633   -3.9040    0.0000 H   0  0  0  0  0  0  0  0  0  0  0  0
    1.4103   -9.8781    0.0000 H   0  0  0  0  0  0  0  0  0  0  0  0
    1.8084  -10.6594    0.0000 H   0  0  0  0  0  0  0  0  0  0  0  0
    2.5897  -10.2613    0.0000 H   0  0  0  0  0  0  0  0  0  0  0  0
   25.0973    9.8771    0.0000 H   0  0  0  0  0  0  0  0  0  0  0  0
   24.7005   10.6590    0.0000 H   0  0  0  0  0  0  0  0  0  0  0  0
   23.9186   10.2623    0.0000 H   0  0  0  0  0  0  0  0  0  0  0  0
   13.7340    3.9226    0.0000 H   0  0  0  0  0  0  0  0  0  0  0  0
   11.3818    1.9000    0.0000 H   0  0  0  0  0  0  0  0  0  0  0  0
  1  3  2  0  0  0  0
  1  4  2  0  0  0  0
  1 25  1  0  0  0  0
  1 31  1  0  0  0  0
  2  5  2  0  0  0  0
  2  6  2  0  0  0  0
  2 26  1  0  0  0  0
  2 32  1  0  0  0  0
  7 43  1  0  0  0  0
  7112  1  0  0  0  0
  8 46  2  0  0  0  0
  9 33  1  0  0  0  0
  9 43  1  0  0  0  0
  9100  1  0  0  0  0
 10 39  2  0  0  0  0
 10 46  1  0  0  0  0
 11 12  1  0  0  0  0
 11 15  1  0  0  0  0
 11 53  1  0  0  0  0
 11 54  1  0  0  0  0
 12 17  1  0  0  0  0
 12 55  1  0  0  0  0
 12 56  1  0  0  0  0
 13 14  1  0  0  0  0
 13 16  1  0  0  0  0
 13 57  1  0  0  0  0
 13 58  1  0  0  0  0
 14 18  1  0  0  0  0
 14 59  1  0  0  0  0
 14 60  1  0  0  0  0
 15 19  1  0  0  0  0
 15 61  1  0  0  0  0
 15 62  1  0  0  0  0
 16 20  1  0  0  0  0
 16 63  1  0  0  0  0
 16 64  1  0  0  0  0
 17 21  1  0  0  0  0
 17 65  1  0  0  0  0
 17 66  1  0  0  0  0
 18 22  1  0  0  0  0
 18 67  1  0  0  0  0
 18 68  1  0  0  0  0
 19 23  1  0  0  0  0
 19 69  1  0  0  0  0
 19 70  1  0  0  0  0
 20 24  1  0  0  0  0
 20 71  1  0  0  0  0
 20 72  1  0  0  0  0
 21 25  1  0  0  0  0
 21 73  1  0  0  0  0
 21 74  1  0  0  0  0
 22 26  1  0  0  0  0
 22 75  1  0  0  0  0
 22 76  1  0  0  0  0
 23 27  1  0  0  0  0
 23 77  1  0  0  0  0
 23 78  1  0  0  0  0
 24 28  1  0  0  0  0
 24 79  1  0  0  0  0
 24 80  1  0  0  0  0
 25 81  1  0  0  0  0
 25 82  1  0  0  0  0
 26 83  1  0  0  0  0
 26 84  1  0  0  0  0
 27 29  1  0  0  0  0
 27 85  1  0  0  0  0
 27 86  1  0  0  0  0
 28 30  1  0  0  0  0
 28 87  1  0  0  0  0
 28 88  1  0  0  0  0
 29 36  1  0  0  0  0
 29 89  1  0  0  0  0
 29 90  1  0  0  0  0
 30 37  1  0  0  0  0
 30 91  1  0  0  0  0
 30 92  1  0  0  0  0
 31 40  1  0  0  0  0
 31 44  2  0  0  0  0
 32 42  1  0  0  0  0
 32 45  2  0  0  0  0
 33 35  2  0  0  0  0
 33 38  1  0  0  0  0
 34 35  1  0  0  0  0
 34 39  1  0  0  0  0
 34 43  2  0  0  0  0
 35 46  1  0  0  0  0
 36 50  1  0  0  0  0
 36 93  1  0  0  0  0
 36 94  1  0  0  0  0
 37 51  1  0  0  0  0
 37 95  1  0  0  0  0
 37 96  1  0  0  0  0
 38 40  2  0  0  0  0
 38 47  1  0  0  0  0
 39 41  1  0  0  0  0
 40 97  1  0  0  0  0
 41 42  2  0  0  0  0
 41 48  1  0  0  0  0
 42 98  1  0  0  0  0
 44 49  1  0  0  0  0
 44 99  1  0  0  0  0
 45 52  1  0  0  0  0
 45101  1  0  0  0  0
 47 49  2  0  0  0  0
 47102  1  0  0  0  0
 48 52  2  0  0  0  0
 48103  1  0  0  0  0
 49104  1  0  0  0  0
 50105  1  0  0  0  0
 50106  1  0  0  0  0
 50107  1  0  0  0  0
 51108  1  0  0  0  0
 51109  1  0  0  0  0
 51110  1  0  0  0  0
 52111  1  0  0  0  0
M  END
> <PUBCHEM_COMPOUND_CID>
135565735

> <PUBCHEM_COMPOUND_CANONICALIZED>
1

> <PUBCHEM_CACTVS_COMPLEXITY>
1290

> <PUBCHEM_CACTVS_HBOND_ACCEPTOR>
6

> <PUBCHEM_CACTVS_HBOND_DONOR>
2

> <PUBCHEM_CACTVS_ROTATABLE_BOND>
26

> <PUBCHEM_CACTVS_SUBSKEYS>
AAADcfB/OABgAAAAAAAAAAAAAAAAAWIAAAAwYAAAAAAQAAAB0AAAHgQQCAAADAiF3gCyhZLJkgqoAyVyVHDCgCAlKDAImTkkTN0IJvri1ZOEcYhkwBHo2Ue+yPCOgAAAgAAAAAAAAAEAAAAAAAAAAAAAAA==

> <PUBCHEM_IUPAC_OPENEYE_NAME>
1,4-bis(3-dodecylsulfonylphenyl)-3-hydroxy-2H-pyrrolo[3,4-c]pyrrol-6-one

> <PUBCHEM_IUPAC_CAS_NAME>
1,4-bis(3-dodecylsulfonylphenyl)-3-hydroxy-2H-pyrrolo[3,4-c]pyrrol-6-one

> <PUBCHEM_IUPAC_NAME_MARKUP>
1,4-bis(3-dodecylsulfonylphenyl)-3-hydroxy-2<I>H</I>-pyrrolo[3,4-c]pyrrol-6-one

> <PUBCHEM_IUPAC_NAME>
1,4-bis(3-dodecylsulfonylphenyl)-3-hydroxy-2H-pyrrolo[3,4-c]pyrrol-6-one

> <PUBCHEM_IUPAC_SYSTEMATIC_NAME>
1,4-bis(3-dodecylsulfonylphenyl)-3-oxidanyl-2H-pyrrolo[3,4-c]pyrrol-6-one

> <PUBCHEM_IUPAC_TRADITIONAL_NAME>
3-hydroxy-1,4-bis(3-laurylsulfonylphenyl)-2H-pyrrolo[3,4-c]pyrrol-6-one

> <PUBCHEM_IUPAC_INCHI>
InChI=1S/C42H60N2O6S2/c1-3-5-7-9-11-13-15-17-19-21-29-51(47,48)35-27-23-25-33(31-35)39-37-38(42(46)43-39)40(44-41(37)45)34-26-24-28-36(32-34)52(49,50)30-22-20-18-16-14-12-10-8-6-4-2/h23-28,31-32,43,46H,3-22,29-30H2,1-2H3

> <PUBCHEM_IUPAC_INCHIKEY>
CQSCBLZNTMLRHO-UHFFFAOYSA-N

> <PUBCHEM_XLOGP3_AA>
13

> <PUBCHEM_EXACT_MASS>
752.38927999

> <PUBCHEM_MOLECULAR_FORMULA>
C42H60N2O6S2

> <PUBCHEM_MOLECULAR_WEIGHT>
753.1

> <PUBCHEM_SMILES>
CCCCCCCCCCCCS(=O)(=O)C1=CC=CC(=C1)C2=C3C(=C(N2)O)C(=NC3=O)C4=CC(=CC=C4)S(=O)(=O)CCCCCCCCCCCC

> <PUBCHEM_OPENEYE_CAN_SMILES>
CCCCCCCCCCCCS(=O)(=O)C1=CC=CC(=C1)C2=C3C(=C(N2)O)C(=NC3=O)C4=CC(=CC=C4)S(=O)(=O)CCCCCCCCCCCC

> <PUBCHEM_OPENEYE_ISO_SMILES>
CCCCCCCCCCCCS(=O)(=O)C1=CC=CC(=C1)C2=C3C(=C(N2)O)C(=NC3=O)C4=CC(=CC=C4)S(=O)(=O)CCCCCCCCCCCC

> <PUBCHEM_CACTVS_TPSA>
150

> <PUBCHEM_MONOISOTOPIC_WEIGHT>
752.38927999

> <PUBCHEM_TOTAL_CHARGE>
0

> <PUBCHEM_HEAVY_ATOM_COUNT>
52

> <PUBCHEM_ATOM_DEF_STEREO_COUNT>
0

> <PUBCHEM_ATOM_UDEF_STEREO_COUNT>
0

> <PUBCHEM_BOND_DEF_STEREO_COUNT>
0

> <PUBCHEM_BOND_UDEF_STEREO_COUNT>
0

> <PUBCHEM_ISOTOPIC_ATOM_COUNT>
0

> <PUBCHEM_COMPONENT_COUNT>
1

> <PUBCHEM_CACTVS_TAUTO_COUNT>
-1

> <PUBCHEM_COORDINATE_TYPE>
1
5
255

> <PUBCHEM_BONDANNOTATIONS>
31  40  8
31  44  8
32  42  8
32  45  8
33  35  8
34  35  8
34  43  8
38  40  8
38  47  8
41  42  8
41  48  8
44  49  8
45  52  8
47  49  8
48  52  8
9  33  8
9  43  8

$$$$
