14456
  -OEChem-04042512472D

 20 19  0     0  0  0  0  0  0999 V2000
    3.7320   -0.4330    0.0000 Si  0  0  0  0  0  0  0  0  0  0  0  0
    4.5981    0.0670    0.0000 O   0  0  0  0  0  0  0  0  0  0  0  0
    2.8660   -0.9330    0.0000 O   0  0  0  0  0  0  0  0  0  0  0  0
    3.2320    0.4330    0.0000 O   0  0  0  0  0  0  0  0  0  0  0  0
    4.2320   -1.2990    0.0000 C   0  0  0  0  0  0  0  0  0  0  0  0
    5.4641   -0.4330    0.0000 C   0  0  0  0  0  0  0  0  0  0  0  0
    2.0000   -0.4330    0.0000 C   0  0  0  0  0  0  0  0  0  0  0  0
    3.7320    1.2990    0.0000 C   0  0  0  0  0  0  0  0  0  0  0  0
    3.6951   -1.6090    0.0000 H   0  0  0  0  0  0  0  0  0  0  0  0
    4.5420   -1.8360    0.0000 H   0  0  0  0  0  0  0  0  0  0  0  0
    4.7690   -0.9890    0.0000 H   0  0  0  0  0  0  0  0  0  0  0  0
    5.1541   -0.9699    0.0000 H   0  0  0  0  0  0  0  0  0  0  0  0
    6.0010   -0.7430    0.0000 H   0  0  0  0  0  0  0  0  0  0  0  0
    5.7741    0.1039    0.0000 H   0  0  0  0  0  0  0  0  0  0  0  0
    2.3100    0.1039    0.0000 H   0  0  0  0  0  0  0  0  0  0  0  0
    1.4631   -0.1230    0.0000 H   0  0  0  0  0  0  0  0  0  0  0  0
    1.6900   -0.9699    0.0000 H   0  0  0  0  0  0  0  0  0  0  0  0
    4.2690    0.9890    0.0000 H   0  0  0  0  0  0  0  0  0  0  0  0
    4.0420    1.8360    0.0000 H   0  0  0  0  0  0  0  0  0  0  0  0
    3.1951    1.6090    0.0000 H   0  0  0  0  0  0  0  0  0  0  0  0
  1  2  1  0  0  0  0
  1  3  1  0  0  0  0
  1  4  1  0  0  0  0
  1  5  1  0  0  0  0
  2  6  1  0  0  0  0
  3  7  1  0  0  0  0
  4  8  1  0  0  0  0
  5  9  1  0  0  0  0
  5 10  1  0  0  0  0
  5 11  1  0  0  0  0
  6 12  1  0  0  0  0
  6 13  1  0  0  0  0
  6 14  1  0  0  0  0
  7 15  1  0  0  0  0
  7 16  1  0  0  0  0
  7 17  1  0  0  0  0
  8 18  1  0  0  0  0
  8 19  1  0  0  0  0
  8 20  1  0  0  0  0
M  END
> <PUBCHEM_COMPOUND_CID>
14456

> <PUBCHEM_COMPOUND_CANONICALIZED>
1

> <PUBCHEM_CACTVS_COMPLEXITY>
54

> <PUBCHEM_CACTVS_HBOND_ACCEPTOR>
3

> <PUBCHEM_CACTVS_HBOND_DONOR>
0

> <PUBCHEM_CACTVS_ROTATABLE_BOND>
3

> <PUBCHEM_CACTVS_SUBSKEYS>
AAADccBgMAgAAAAAAAAAAAAAAAAAAAAAAAAAAAAAAAAAAAAAAAAAEhAAAEAAAAAAAAJCAAAAAAAAAAAAAAAAAAAAAAAAAAAAAAAAAAAAAAAAAAAAAAAAAAAAAAAAAAAAAAAAAAAAAAAAAAAAAAAAAAAAAA==

> <PUBCHEM_IUPAC_OPENEYE_NAME>
trimethoxy(methyl)silane

> <PUBCHEM_IUPAC_CAS_NAME>
trimethoxy(methyl)silane

> <PUBCHEM_IUPAC_NAME_MARKUP>
trimethoxy(methyl)silane

> <PUBCHEM_IUPAC_NAME>
trimethoxy(methyl)silane

> <PUBCHEM_IUPAC_SYSTEMATIC_NAME>
trimethoxy(methyl)silane

> <PUBCHEM_IUPAC_TRADITIONAL_NAME>
trimethoxy(methyl)silane

> <PUBCHEM_IUPAC_INCHI>
InChI=1S/C4H12O3Si/c1-5-8(4,6-2)7-3/h1-4H3

> <PUBCHEM_IUPAC_INCHIKEY>
BFXIKLCIZHOAAZ-UHFFFAOYSA-N

> <PUBCHEM_EXACT_MASS>
136.05557077

> <PUBCHEM_MOLECULAR_FORMULA>
C4H12O3Si

> <PUBCHEM_MOLECULAR_WEIGHT>
136.22

> <PUBCHEM_SMILES>
CO[Si](C)(OC)OC

> <PUBCHEM_OPENEYE_CAN_SMILES>
CO[Si](C)(OC)OC

> <PUBCHEM_OPENEYE_ISO_SMILES>
CO[Si](C)(OC)OC

> <PUBCHEM_CACTVS_TPSA>
27.7

> <PUBCHEM_MONOISOTOPIC_WEIGHT>
136.05557077

> <PUBCHEM_TOTAL_CHARGE>
0

> <PUBCHEM_HEAVY_ATOM_COUNT>
8

> <PUBCHEM_ATOM_DEF_STEREO_COUNT>
0

> <PUBCHEM_ATOM_UDEF_STEREO_COUNT>
0

> <PUBCHEM_BOND_DEF_STEREO_COUNT>
0

> <PUBCHEM_BOND_UDEF_STEREO_COUNT>
0

> <PUBCHEM_ISOTOPIC_ATOM_COUNT>
0

> <PUBCHEM_COMPONENT_COUNT>
1

> <PUBCHEM_CACTVS_TAUTO_COUNT>
-1

> <PUBCHEM_COORDINATE_TYPE>
1
5
255

$$$$
