146019320
  -OEChem-04042512222D

143 54  0     0  0  0  0  0  0999 V2000
    0.8660   21.4820    0.0000 Si  0  0  0  0  0  0  0  0  0  0  0  0
    2.5981   21.4820    0.0000 Si  0  0  0  0  0  0  0  0  0  0  0  0
   14.6603   20.8660    0.0000 Si  0  0  0  0  0  0  0  0  0  0  0  0
   16.3923   20.8660    0.0000 Si  0  0  0  0  0  0  0  0  0  0  0  0
    5.4641   22.7320    0.0000 Si  0  0  0  0  0  0  0  0  0  0  0  0
    7.1962   22.7320    0.0000 Si  0  0  0  0  0  0  0  0  0  0  0  0
   14.6603   24.5981    0.0000 Si  0  0  0  0  0  0  0  0  0  0  0  0
   16.3923   24.5981    0.0000 Si  0  0  0  0  0  0  0  0  0  0  0  0
   10.0622   22.7320    0.0000 Si  0  0  0  0  0  0  0  0  0  0  0  0
   11.7942   22.7320    0.0000 Si  0  0  0  0  0  0  0  0  0  0  0  0
   19.2583   22.7320    0.0000 Si  0  0  0  0  0  0  0  0  0  0  0  0
   20.9904   22.7320    0.0000 Si  0  0  0  0  0  0  0  0  0  0  0  0
    5.6471    4.3660    0.0000 Al  0  1  0  0  0  0  0  0  0  0  0  0
   23.8564   22.4820    0.0000 Al  0  1  0  0  0  0  0  0  0  0  0  0
   25.5885   22.4820    0.0000 Al  0  1  0  0  0  0  0  0  0  0  0  0
    1.0490    0.6160    0.0000 Al  0  1  0  0  0  0  0  0  0  0  0  0
   10.2452    1.8660    0.0000 Al  0  1  0  0  0  0  0  0  0  0  0  0
   14.8433    0.0000    0.0000 Al  0  1  0  0  0  0  0  0  0  0  0  0
   19.4413    1.8660    0.0000 Al  0  1  0  0  0  0  0  0  0  0  0  0
   24.0394    2.4820    0.0000 Al  0  1  0  0  0  0  0  0  0  0  0  0
    1.0490    3.1160    0.0000 Al  0  1  0  0  0  0  0  0  0  0  0  0
   10.2452    4.3660    0.0000 Al  0  1  0  0  0  0  0  0  0  0  0  0
   14.8433    2.5000    0.0000 Al  0  1  0  0  0  0  0  0  0  0  0  0
    5.6471    1.8660    0.0000 Al  0  1  0  0  0  0  0  0  0  0  0  0
   14.8433    7.5000    0.0000 Na  0  3  0  0  0  0  0  0  0  0  0  0
   19.4413    4.3660    0.0000 Na  0  3  0  0  0  0  0  0  0  0  0  0
   19.4413    6.8660    0.0000 Na  0  3  0  0  0  0  0  0  0  0  0  0
    1.0490    5.6160    0.0000 Na  0  3  0  0  0  0  0  0  0  0  0  0
    5.6471    6.8660    0.0000 Na  0  3  0  0  0  0  0  0  0  0  0  0
   10.2452    6.8660    0.0000 Na  0  3  0  0  0  0  0  0  0  0  0  0
   24.0394    7.4820    0.0000 Na  0  3  0  0  0  0  0  0  0  0  0  0
    1.0490    8.1160    0.0000 Na  0  3  0  0  0  0  0  0  0  0  0  0
    5.6471    9.3660    0.0000 Na  0  3  0  0  0  0  0  0  0  0  0  0
   10.2452    9.3660    0.0000 Na  0  3  0  0  0  0  0  0  0  0  0  0
   14.8433    5.0000    0.0000 Na  0  3  0  0  0  0  0  0  0  0  0  0
   24.0394    4.9820    0.0000 Na  0  3  0  0  0  0  0  0  0  0  0  0
   19.6913   14.3660    0.0000 O   0  0  0  0  0  0  0  0  0  0  0  0
   19.6913    9.3660    0.0000 O   0  0  0  0  0  0  0  0  0  0  0  0
   24.2894    9.9820    0.0000 O   0  0  0  0  0  0  0  0  0  0  0  0
   24.2894   14.9821    0.0000 O   0  0  0  0  0  0  0  0  0  0  0  0
    5.8971   11.8660    0.0000 O   0  0  0  0  0  0  0  0  0  0  0  0
   10.4952   11.8660    0.0000 O   0  0  0  0  0  0  0  0  0  0  0  0
   15.0933   10.0000    0.0000 O   0  0  0  0  0  0  0  0  0  0  0  0
   19.6913   11.8660    0.0000 O   0  0  0  0  0  0  0  0  0  0  0  0
   24.2894   12.4821    0.0000 O   0  0  0  0  0  0  0  0  0  0  0  0
    1.2990   13.1160    0.0000 O   0  0  0  0  0  0  0  0  0  0  0  0
    5.8971   14.3660    0.0000 O   0  0  0  0  0  0  0  0  0  0  0  0
   10.4952   14.3660    0.0000 O   0  0  0  0  0  0  0  0  0  0  0  0
   15.0933   12.5000    0.0000 O   0  0  0  0  0  0  0  0  0  0  0  0
   10.4952   16.8660    0.0000 O   0  0  0  0  0  0  0  0  0  0  0  0
    1.2990   24.3481    0.0000 O   0  0  0  0  0  0  0  0  0  0  0  0
    1.2990   15.6160    0.0000 O   0  0  0  0  0  0  0  0  0  0  0  0
    5.8971   16.8660    0.0000 O   0  0  0  0  0  0  0  0  0  0  0  0
    1.2990   10.6160    0.0000 O   0  0  0  0  0  0  0  0  0  0  0  0
   15.0933   15.0000    0.0000 O   0  0  0  0  0  0  0  0  0  0  0  0
   19.6914   16.8660    0.0000 O   0  0  0  0  0  0  0  0  0  0  0  0
   24.2894   17.4820    0.0000 O   0  0  0  0  0  0  0  0  0  0  0  0
    1.2990   18.1160    0.0000 O   0  0  0  0  0  0  0  0  0  0  0  0
    5.8971   19.3660    0.0000 O   0  0  0  0  0  0  0  0  0  0  0  0
   10.4952   19.3660    0.0000 O   0  0  0  0  0  0  0  0  0  0  0  0
   15.0933   17.5000    0.0000 O   0  0  0  0  0  0  0  0  0  0  0  0
   19.6913   19.3660    0.0000 O   0  0  0  0  0  0  0  0  0  0  0  0
   24.2894   19.9820    0.0000 O   0  0  0  0  0  0  0  0  0  0  0  0
    1.7320   21.9820    0.0000 O   0  6  0  0  0  0  0  0  0  0  0  0
    0.0000   20.9820    0.0000 O   0  6  0  0  0  0  0  0  0  0  0  0
    0.3660   22.3481    0.0000 O   0  6  0  0  0  0  0  0  0  0  0  0
   13.7942   24.0981    0.0000 O   0  6  0  0  0  0  0  0  0  0  0  0
    1.3660   20.6160    0.0000 O   0  6  0  0  0  0  0  0  0  0  0  0
   15.5263   21.3660    0.0000 O   0  6  0  0  0  0  0  0  0  0  0  0
   14.1603   21.7321    0.0000 O   0  6  0  0  0  0  0  0  0  0  0  0
   15.1603   20.0000    0.0000 O   0  6  0  0  0  0  0  0  0  0  0  0
    4.5981   22.2320    0.0000 O   0  6  0  0  0  0  0  0  0  0  0  0
    4.9641   23.5981    0.0000 O   0  6  0  0  0  0  0  0  0  0  0  0
    5.9641   21.8660    0.0000 O   0  6  0  0  0  0  0  0  0  0  0  0
   13.7942   20.3660    0.0000 O   0  6  0  0  0  0  0  0  0  0  0  0
   18.7583   23.5981    0.0000 O   0  6  0  0  0  0  0  0  0  0  0  0
    6.3301   23.2320    0.0000 O   0  6  0  0  0  0  0  0  0  0  0  0
   15.5263   25.0981    0.0000 O   0  6  0  0  0  0  0  0  0  0  0  0
   15.1603   23.7320    0.0000 O   0  6  0  0  0  0  0  0  0  0  0  0
   10.9282   23.2320    0.0000 O   0  6  0  0  0  0  0  0  0  0  0  0
    9.1962   22.2320    0.0000 O   0  6  0  0  0  0  0  0  0  0  0  0
   14.1603   25.4641    0.0000 O   0  6  0  0  0  0  0  0  0  0  0  0
    9.5622   23.5981    0.0000 O   0  6  0  0  0  0  0  0  0  0  0  0
   20.1244   23.2320    0.0000 O   0  6  0  0  0  0  0  0  0  0  0  0
   18.3923   22.2320    0.0000 O   0  6  0  0  0  0  0  0  0  0  0  0
   19.7583   21.8660    0.0000 O   0  6  0  0  0  0  0  0  0  0  0  0
   24.7224   22.9820    0.0000 O   0  6  0  0  0  0  0  0  0  0  0  0
   22.9904   22.9820    0.0000 O   0  6  0  0  0  0  0  0  0  0  0  0
   10.5622   21.8660    0.0000 O   0  6  0  0  0  0  0  0  0  0  0  0
   20.2283   14.6760    0.0000 H   0  0  0  0  0  0  0  0  0  0  0  0
   19.1544   14.6760    0.0000 H   0  0  0  0  0  0  0  0  0  0  0  0
   20.2283    9.6760    0.0000 H   0  0  0  0  0  0  0  0  0  0  0  0
   19.1544    9.6760    0.0000 H   0  0  0  0  0  0  0  0  0  0  0  0
   24.8264   10.2921    0.0000 H   0  0  0  0  0  0  0  0  0  0  0  0
   23.7525   10.2921    0.0000 H   0  0  0  0  0  0  0  0  0  0  0  0
   24.8264   15.2921    0.0000 H   0  0  0  0  0  0  0  0  0  0  0  0
   23.7525   15.2921    0.0000 H   0  0  0  0  0  0  0  0  0  0  0  0
    6.4340   12.1760    0.0000 H   0  0  0  0  0  0  0  0  0  0  0  0
    5.3602   12.1760    0.0000 H   0  0  0  0  0  0  0  0  0  0  0  0
   11.0321   12.1760    0.0000 H   0  0  0  0  0  0  0  0  0  0  0  0
    9.9582   12.1760    0.0000 H   0  0  0  0  0  0  0  0  0  0  0  0
   15.6302   10.3100    0.0000 H   0  0  0  0  0  0  0  0  0  0  0  0
   14.5563   10.3100    0.0000 H   0  0  0  0  0  0  0  0  0  0  0  0
   20.2283   12.1760    0.0000 H   0  0  0  0  0  0  0  0  0  0  0  0
   19.1544   12.1760    0.0000 H   0  0  0  0  0  0  0  0  0  0  0  0
   24.8264   12.7921    0.0000 H   0  0  0  0  0  0  0  0  0  0  0  0
   23.7525   12.7921    0.0000 H   0  0  0  0  0  0  0  0  0  0  0  0
    1.8360   13.4260    0.0000 H   0  0  0  0  0  0  0  0  0  0  0  0
    0.7621   13.4260    0.0000 H   0  0  0  0  0  0  0  0  0  0  0  0
    6.4340   14.6760    0.0000 H   0  0  0  0  0  0  0  0  0  0  0  0
    5.3602   14.6760    0.0000 H   0  0  0  0  0  0  0  0  0  0  0  0
   11.0321   14.6760    0.0000 H   0  0  0  0  0  0  0  0  0  0  0  0
    9.9582   14.6760    0.0000 H   0  0  0  0  0  0  0  0  0  0  0  0
   15.6302   12.8100    0.0000 H   0  0  0  0  0  0  0  0  0  0  0  0
   14.5563   12.8100    0.0000 H   0  0  0  0  0  0  0  0  0  0  0  0
   11.0321   17.1760    0.0000 H   0  0  0  0  0  0  0  0  0  0  0  0
    9.9582   17.1760    0.0000 H   0  0  0  0  0  0  0  0  0  0  0  0
    1.8360   24.6581    0.0000 H   0  0  0  0  0  0  0  0  0  0  0  0
    0.7621   24.6581    0.0000 H   0  0  0  0  0  0  0  0  0  0  0  0
    1.8360   15.9260    0.0000 H   0  0  0  0  0  0  0  0  0  0  0  0
    0.7621   15.9260    0.0000 H   0  0  0  0  0  0  0  0  0  0  0  0
    6.4340   17.1760    0.0000 H   0  0  0  0  0  0  0  0  0  0  0  0
    5.3602   17.1760    0.0000 H   0  0  0  0  0  0  0  0  0  0  0  0
    1.8360   10.9260    0.0000 H   0  0  0  0  0  0  0  0  0  0  0  0
    0.7621   10.9260    0.0000 H   0  0  0  0  0  0  0  0  0  0  0  0
   15.6302   15.3100    0.0000 H   0  0  0  0  0  0  0  0  0  0  0  0
   14.5563   15.3100    0.0000 H   0  0  0  0  0  0  0  0  0  0  0  0
   20.2283   17.1760    0.0000 H   0  0  0  0  0  0  0  0  0  0  0  0
   19.1544   17.1760    0.0000 H   0  0  0  0  0  0  0  0  0  0  0  0
   24.8264   17.7921    0.0000 H   0  0  0  0  0  0  0  0  0  0  0  0
   23.7525   17.7921    0.0000 H   0  0  0  0  0  0  0  0  0  0  0  0
    1.8360   18.4260    0.0000 H   0  0  0  0  0  0  0  0  0  0  0  0
    0.7621   18.4260    0.0000 H   0  0  0  0  0  0  0  0  0  0  0  0
    6.4340   19.6760    0.0000 H   0  0  0  0  0  0  0  0  0  0  0  0
    5.3602   19.6760    0.0000 H   0  0  0  0  0  0  0  0  0  0  0  0
   11.0321   19.6760    0.0000 H   0  0  0  0  0  0  0  0  0  0  0  0
    9.9582   19.6760    0.0000 H   0  0  0  0  0  0  0  0  0  0  0  0
   15.6302   17.8100    0.0000 H   0  0  0  0  0  0  0  0  0  0  0  0
   14.5563   17.8100    0.0000 H   0  0  0  0  0  0  0  0  0  0  0  0
   20.2283   19.6760    0.0000 H   0  0  0  0  0  0  0  0  0  0  0  0
   19.1544   19.6760    0.0000 H   0  0  0  0  0  0  0  0  0  0  0  0
   24.8264   20.2921    0.0000 H   0  0  0  0  0  0  0  0  0  0  0  0
   23.7525   20.2921    0.0000 H   0  0  0  0  0  0  0  0  0  0  0  0
 37 90  1  0  0  0  0
 37 91  1  0  0  0  0
 38 92  1  0  0  0  0
 38 93  1  0  0  0  0
 39 94  1  0  0  0  0
 39 95  1  0  0  0  0
 40 96  1  0  0  0  0
 40 97  1  0  0  0  0
 41 98  1  0  0  0  0
 41 99  1  0  0  0  0
 42100  1  0  0  0  0
 42101  1  0  0  0  0
 43102  1  0  0  0  0
 43103  1  0  0  0  0
 44104  1  0  0  0  0
 44105  1  0  0  0  0
 45106  1  0  0  0  0
 45107  1  0  0  0  0
 46108  1  0  0  0  0
 46109  1  0  0  0  0
 47110  1  0  0  0  0
 47111  1  0  0  0  0
 48112  1  0  0  0  0
 48113  1  0  0  0  0
 49114  1  0  0  0  0
 49115  1  0  0  0  0
 50116  1  0  0  0  0
 50117  1  0  0  0  0
 51118  1  0  0  0  0
 51119  1  0  0  0  0
 52120  1  0  0  0  0
 52121  1  0  0  0  0
 53122  1  0  0  0  0
 53123  1  0  0  0  0
 54124  1  0  0  0  0
 54125  1  0  0  0  0
 55126  1  0  0  0  0
 55127  1  0  0  0  0
 56128  1  0  0  0  0
 56129  1  0  0  0  0
 57130  1  0  0  0  0
 57131  1  0  0  0  0
 58132  1  0  0  0  0
 58133  1  0  0  0  0
 59134  1  0  0  0  0
 59135  1  0  0  0  0
 60136  1  0  0  0  0
 60137  1  0  0  0  0
 61138  1  0  0  0  0
 61139  1  0  0  0  0
 62140  1  0  0  0  0
 62141  1  0  0  0  0
 63142  1  0  0  0  0
 63143  1  0  0  0  0
M  CHG  8   1   4   2   4   3   4   4   4   5   4   6   4   7   4   8   4
M  CHG  8   9   4  10   4  11   4  12   4  13   3  14   3  15   3  16   3
M  CHG  8  17   3  18   3  19   3  20   3  21   3  22   3  23   3  24   3
M  CHG  8  25   1  26   1  27   1  28   1  29   1  30   1  31   1  32   1
M  CHG  8  33   1  34   1  35   1  36   1  64  -2  65  -2  66  -2  67  -2
M  CHG  8  68  -2  69  -2  70  -2  71  -2  72  -2  73  -2  74  -2  75  -2
M  CHG  8  76  -2  77  -2  78  -2  79  -2  80  -2  81  -2  82  -2  83  -2
M  CHG  6  84  -2  85  -2  86  -2  87  -2  88  -2  89  -2
M  END
> <PUBCHEM_COMPOUND_CID>
146019320

> <PUBCHEM_COMPOUND_CANONICALIZED>
1

> <PUBCHEM_CACTVS_COMPLEXITY>
0

> <PUBCHEM_CACTVS_HBOND_ACCEPTOR>
53

> <PUBCHEM_CACTVS_HBOND_DONOR>
27

> <PUBCHEM_CACTVS_ROTATABLE_BOND>
0

> <PUBCHEM_CACTVS_SUBSKEYS>
AAADcfAAPjwAABAAAAAAAAAAAAAAAAAAAAAAAAAAAAAAAAAAAAAAAAAACAAAAAAAAAAAAAAAAAAAAAAAAAAAAAAAAAAAAAAAAAAAAAAAAAAAAAAAAAAAAAAAAAAAAAAAAAAAAAAAAAAAAAAAAAAAAAAAAA==

> <PUBCHEM_IUPAC_OPENEYE_NAME>
dodecaaluminum;dodecasodium;oxygen(2-);silicon(4+);heptacosahydrate

> <PUBCHEM_IUPAC_CAS_NAME>
dodecaaluminum;dodecasodium;oxygen(2-);silicon(4+);heptacosahydrate

> <PUBCHEM_IUPAC_NAME_MARKUP>
dodecaaluminum;dodecasodium;oxygen(2-);silicon(4+);heptacosahydrate

> <PUBCHEM_IUPAC_NAME>
dodecaaluminum;dodecasodium;oxygen(2-);silicon(4+);heptacosahydrate

> <PUBCHEM_IUPAC_SYSTEMATIC_NAME>
dodecaaluminum;dodecasodium;oxygen(2-);silicon(4+);heptacosahydrate

> <PUBCHEM_IUPAC_TRADITIONAL_NAME>
dodecaaluminum;dodecasodium;oxygen(2-);silicon(4+);heptacosahydrate

> <PUBCHEM_IUPAC_INCHI>
InChI=1S/12Al.12Na.27H2O.26O.12Si/h;;;;;;;;;;;;;;;;;;;;;;;;27*1H2;;;;;;;;;;;;;;;;;;;;;;;;;;;;;;;;;;;;;;/q12*+3;12*+1;;;;;;;;;;;;;;;;;;;;;;;;;;;;26*-2;12*+4

> <PUBCHEM_IUPAC_INCHIKEY>
LVZAVNQYRZXWLS-UHFFFAOYSA-N

> <PUBCHEM_EXACT_MASS>
1837.531837

> <PUBCHEM_MOLECULAR_FORMULA>
Al12H54Na12O53Si12+44

> <PUBCHEM_MOLECULAR_WEIGHT>
1839.1

> <PUBCHEM_REFERENCE_STANDARDIZATION>
Bypass - this structure was created from CID 146019320

> <PUBCHEM_SMILES>
O.O.O.O.O.O.O.O.O.O.O.O.O.O.O.O.O.O.O.O.O.O.O.O.O.O.O.[O-2].[O-2].[O-2].[O-2].[O-2].[O-2].[O-2].[O-2].[O-2].[O-2].[O-2].[O-2].[O-2].[O-2].[O-2].[O-2].[O-2].[O-2].[O-2].[O-2].[O-2].[O-2].[O-2].[O-2].[O-2].[O-2].[Na+].[Na+].[Na+].[Na+].[Na+].[Na+].[Na+].[Na+].[Na+].[Na+].[Na+].[Na+].[Al+3].[Al+3].[Al+3].[Al+3].[Al+3].[Al+3].[Al+3].[Al+3].[Al+3].[Al+3].[Al+3].[Al+3].[Si+4].[Si+4].[Si+4].[Si+4].[Si+4].[Si+4].[Si+4].[Si+4].[Si+4].[Si+4].[Si+4].[Si+4]

> <PUBCHEM_OPENEYE_CAN_SMILES>
O.O.O.O.O.O.O.O.O.O.O.O.O.O.O.O.O.O.O.O.O.O.O.O.O.O.O.[O-2].[O-2].[O-2].[O-2].[O-2].[O-2].[O-2].[O-2].[O-2].[O-2].[O-2].[O-2].[O-2].[O-2].[O-2].[O-2].[O-2].[O-2].[O-2].[O-2].[O-2].[O-2].[O-2].[O-2].[O-2].[O-2].[Na+].[Na+].[Na+].[Na+].[Na+].[Na+].[Na+].[Na+].[Na+].[Na+].[Na+].[Na+].[Al+3].[Al+3].[Al+3].[Al+3].[Al+3].[Al+3].[Al+3].[Al+3].[Al+3].[Al+3].[Al+3].[Al+3].[Si+4].[Si+4].[Si+4].[Si+4].[Si+4].[Si+4].[Si+4].[Si+4].[Si+4].[Si+4].[Si+4].[Si+4]

> <PUBCHEM_OPENEYE_ISO_SMILES>
O.O.O.O.O.O.O.O.O.O.O.O.O.O.O.O.O.O.O.O.O.O.O.O.O.O.O.[O-2].[O-2].[O-2].[O-2].[O-2].[O-2].[O-2].[O-2].[O-2].[O-2].[O-2].[O-2].[O-2].[O-2].[O-2].[O-2].[O-2].[O-2].[O-2].[O-2].[O-2].[O-2].[O-2].[O-2].[O-2].[O-2].[Na+].[Na+].[Na+].[Na+].[Na+].[Na+].[Na+].[Na+].[Na+].[Na+].[Na+].[Na+].[Al+3].[Al+3].[Al+3].[Al+3].[Al+3].[Al+3].[Al+3].[Al+3].[Al+3].[Al+3].[Al+3].[Al+3].[Si+4].[Si+4].[Si+4].[Si+4].[Si+4].[Si+4].[Si+4].[Si+4].[Si+4].[Si+4].[Si+4].[Si+4]

> <PUBCHEM_CACTVS_TPSA>
53

> <PUBCHEM_MONOISOTOPIC_WEIGHT>
1837.531837

> <PUBCHEM_TOTAL_CHARGE>
44

> <PUBCHEM_HEAVY_ATOM_COUNT>
89

> <PUBCHEM_ATOM_DEF_STEREO_COUNT>
0

> <PUBCHEM_ATOM_UDEF_STEREO_COUNT>
0

> <PUBCHEM_BOND_DEF_STEREO_COUNT>
0

> <PUBCHEM_BOND_UDEF_STEREO_COUNT>
0

> <PUBCHEM_ISOTOPIC_ATOM_COUNT>
0

> <PUBCHEM_COMPONENT_COUNT>
89

> <PUBCHEM_CACTVS_TAUTO_COUNT>
-1

> <PUBCHEM_COORDINATE_TYPE>
1
5
255

$$$$
