15174007
  -OEChem-04042512432D

 77 84  0     0  0  0  0  0  0999 V2000
    7.0752   -0.0609    0.0000 Pt  0  2  0  0  0  0  0  0  0  0  0  0
    5.9131   -3.6249    0.0000 F   0  0  0  0  0  0  0  0  0  0  0  0
    8.3543   -3.6273    0.0000 F   0  0  0  0  0  0  0  0  0  0  0  0
    3.4516   -1.1876    0.0000 F   0  0  0  0  0  0  0  0  0  0  0  0
   10.8048   -1.1788    0.0000 F   0  0  0  0  0  0  0  0  0  0  0  0
    5.8551    3.5965    0.0000 F   0  0  0  0  0  0  0  0  0  0  0  0
    8.2291    3.5649    0.0000 F   0  0  0  0  0  0  0  0  0  0  0  0
    3.4258    1.1270    0.0000 F   0  0  0  0  0  0  0  0  0  0  0  0
   10.7947    1.2373    0.0000 F   0  0  0  0  0  0  0  0  0  0  0  0
    2.0444   -2.6088    0.0000 F   0  0  0  0  0  0  0  0  0  0  0  0
   12.2184   -2.5937    0.0000 F   0  0  0  0  0  0  0  0  0  0  0  0
    4.5059   -5.0461    0.0000 F   0  0  0  0  0  0  0  0  0  0  0  0
    9.7679   -5.0421    0.0000 F   0  0  0  0  0  0  0  0  0  0  0  0
    2.0000    2.5295    0.0000 F   0  0  0  0  0  0  0  0  0  0  0  0
   12.1386    2.7185    0.0000 F   0  0  0  0  0  0  0  0  0  0  0  0
    4.4293    4.9991    0.0000 F   0  0  0  0  0  0  0  0  0  0  0  0
    9.5730    5.0461    0.0000 F   0  0  0  0  0  0  0  0  0  0  0  0
    2.5715   -4.5380    0.0000 F   0  0  0  0  0  0  0  0  0  0  0  0
   11.7000   -4.5253    0.0000 F   0  0  0  0  0  0  0  0  0  0  0  0
    2.5018    4.4656    0.0000 F   0  0  0  0  0  0  0  0  0  0  0  0
   11.5277    4.6230    0.0000 F   0  0  0  0  0  0  0  0  0  0  0  0
    7.1131   -1.3704    0.0000 N   0  5  0  0  0  0  0  0  0  0  0  0
    7.0804    1.3026    0.0000 N   0  5  0  0  0  0  0  0  0  0  0  0
    5.6457   -0.0339    0.0000 N   0  0  0  0  0  0  0  0  0  0  0  0
    8.5786   -0.0339    0.0000 N   0  0  0  0  0  0  0  0  0  0  0  0
    6.3303   -1.9898    0.0000 C   0  0  0  0  0  0  0  0  0  0  0  0
    7.8957   -1.9571    0.0000 C   0  0  0  0  0  0  0  0  0  0  0  0
    6.2977    1.9218    0.0000 C   0  0  0  0  0  0  0  0  0  0  0  0
    7.8957    1.9546    0.0000 C   0  0  0  0  0  0  0  0  0  0  0  0
    5.3859   -1.6957    0.0000 C   0  0  0  0  0  0  0  0  0  0  0  0
    8.8727   -1.6957    0.0000 C   0  0  0  0  0  0  0  0  0  0  0  0
    5.3533    1.6604    0.0000 C   0  0  0  0  0  0  0  0  0  0  0  0
    8.8400    1.6604    0.0000 C   0  0  0  0  0  0  0  0  0  0  0  0
    6.6244   -2.9015    0.0000 C   0  0  0  0  0  0  0  0  0  0  0  0
    7.6016   -2.9015    0.0000 C   0  0  0  0  0  0  0  0  0  0  0  0
    6.5918    2.8663    0.0000 C   0  0  0  0  0  0  0  0  0  0  0  0
    7.5689    2.8663    0.0000 C   0  0  0  0  0  0  0  0  0  0  0  0
    5.0919   -0.7839    0.0000 C   0  0  0  0  0  0  0  0  0  0  0  0
    9.1652   -0.7512    0.0000 C   0  0  0  0  0  0  0  0  0  0  0  0
    5.0919    0.7160    0.0000 C   0  0  0  0  0  0  0  0  0  0  0  0
    9.1325    0.7487    0.0000 C   0  0  0  0  0  0  0  0  0  0  0  0
    4.6823   -2.4063    0.0000 C   0  0  0  0  0  0  0  0  0  0  0  0
    9.5795   -2.4031    0.0000 C   0  0  0  0  0  0  0  0  0  0  0  0
    4.6404    2.3617    0.0000 C   0  0  0  0  0  0  0  0  0  0  0  0
    9.5119    2.4011    0.0000 C   0  0  0  0  0  0  0  0  0  0  0  0
    4.1474   -0.5224    0.0000 C   0  0  0  0  0  0  0  0  0  0  0  0
   10.0785   -0.4898    0.0000 C   0  0  0  0  0  0  0  0  0  0  0  0
    4.1474    0.4546    0.0000 C   0  0  0  0  0  0  0  0  0  0  0  0
   10.0785    0.4872    0.0000 C   0  0  0  0  0  0  0  0  0  0  0  0
    4.9459   -3.3709    0.0000 C   0  0  0  0  0  0  0  0  0  0  0  0
    9.3203   -3.3689    0.0000 C   0  0  0  0  0  0  0  0  0  0  0  0
    3.7152   -2.1522    0.0000 C   0  0  0  0  0  0  0  0  0  0  0  0
   10.5456   -2.1447    0.0000 C   0  0  0  0  0  0  0  0  0  0  0  0
    4.8913    3.3298    0.0000 C   0  0  0  0  0  0  0  0  0  0  0  0
    9.2065    3.3533    0.0000 C   0  0  0  0  0  0  0  0  0  0  0  0
    3.6766    2.0950    0.0000 C   0  0  0  0  0  0  0  0  0  0  0  0
   10.4893    2.1895    0.0000 C   0  0  0  0  0  0  0  0  0  0  0  0
    3.0116   -2.8628    0.0000 C   0  0  0  0  0  0  0  0  0  0  0  0
   11.2524   -2.8521    0.0000 C   0  0  0  0  0  0  0  0  0  0  0  0
    4.2423   -4.0815    0.0000 C   0  0  0  0  0  0  0  0  0  0  0  0
   10.0271   -4.0763    0.0000 C   0  0  0  0  0  0  0  0  0  0  0  0
    2.9638    2.7963    0.0000 C   0  0  0  0  0  0  0  0  0  0  0  0
   11.1612    2.9301    0.0000 C   0  0  0  0  0  0  0  0  0  0  0  0
    4.1784    4.0310    0.0000 C   0  0  0  0  0  0  0  0  0  0  0  0
    9.8784    4.0939    0.0000 C   0  0  0  0  0  0  0  0  0  0  0  0
    3.2751   -3.8274    0.0000 C   0  0  0  0  0  0  0  0  0  0  0  0
   10.9932   -3.8179    0.0000 C   0  0  0  0  0  0  0  0  0  0  0  0
    3.2146    3.7643    0.0000 C   0  0  0  0  0  0  0  0  0  0  0  0
   10.8558    3.8823    0.0000 C   0  0  0  0  0  0  0  0  0  0  0  0
    6.2595   -3.4027    0.0000 H   0  0  0  0  0  0  0  0  0  0  0  0
    7.9691   -3.4009    0.0000 H   0  0  0  0  0  0  0  0  0  0  0  0
    6.2243    3.3657    0.0000 H   0  0  0  0  0  0  0  0  0  0  0  0
    7.9258    3.3733    0.0000 H   0  0  0  0  0  0  0  0  0  0  0  0
    3.6540   -0.8978    0.0000 H   0  0  0  0  0  0  0  0  0  0  0  0
   10.5736   -0.8630    0.0000 H   0  0  0  0  0  0  0  0  0  0  0  0
    3.6540    0.8300    0.0000 H   0  0  0  0  0  0  0  0  0  0  0  0
   10.5719    0.8627    0.0000 H   0  0  0  0  0  0  0  0  0  0  0  0
  2 50  1  0  0  0  0
  3 51  1  0  0  0  0
  4 52  1  0  0  0  0
  5 53  1  0  0  0  0
  6 54  1  0  0  0  0
  7 55  1  0  0  0  0
  8 56  1  0  0  0  0
  9 57  1  0  0  0  0
 10 58  1  0  0  0  0
 11 59  1  0  0  0  0
 12 60  1  0  0  0  0
 13 61  1  0  0  0  0
 14 62  1  0  0  0  0
 15 63  1  0  0  0  0
 16 64  1  0  0  0  0
 17 65  1  0  0  0  0
 18 66  1  0  0  0  0
 19 67  1  0  0  0  0
 20 68  1  0  0  0  0
 21 69  1  0  0  0  0
 22 26  1  0  0  0  0
 22 27  1  0  0  0  0
 23 28  1  0  0  0  0
 23 29  1  0  0  0  0
 24 38  2  0  0  0  0
 24 40  1  0  0  0  0
 25 39  2  0  0  0  0
 25 41  1  0  0  0  0
 26 30  2  0  0  0  0
 26 34  1  0  0  0  0
 27 31  2  0  0  0  0
 27 35  1  0  0  0  0
 28 32  1  0  0  0  0
 28 36  2  0  0  0  0
 29 33  1  0  0  0  0
 29 37  2  0  0  0  0
 30 38  1  0  0  0  0
 30 42  1  0  0  0  0
 31 39  1  0  0  0  0
 31 43  1  0  0  0  0
 32 40  2  0  0  0  0
 32 44  1  0  0  0  0
 33 41  2  0  0  0  0
 33 45  1  0  0  0  0
 34 35  2  0  0  0  0
 34 70  1  0  0  0  0
 35 71  1  0  0  0  0
 36 37  1  0  0  0  0
 36 72  1  0  0  0  0
 37 73  1  0  0  0  0
 38 46  1  0  0  0  0
 39 47  1  0  0  0  0
 40 48  1  0  0  0  0
 41 49  1  0  0  0  0
 42 50  2  0  0  0  0
 42 52  1  0  0  0  0
 43 51  2  0  0  0  0
 43 53  1  0  0  0  0
 44 54  2  0  0  0  0
 44 56  1  0  0  0  0
 45 55  2  0  0  0  0
 45 57  1  0  0  0  0
 46 48  2  0  0  0  0
 46 74  1  0  0  0  0
 47 49  2  0  0  0  0
 47 75  1  0  0  0  0
 48 76  1  0  0  0  0
 49 77  1  0  0  0  0
 50 60  1  0  0  0  0
 51 61  1  0  0  0  0
 52 58  2  0  0  0  0
 53 59  2  0  0  0  0
 54 64  1  0  0  0  0
 55 65  1  0  0  0  0
 56 62  2  0  0  0  0
 57 63  2  0  0  0  0
 58 66  1  0  0  0  0
 59 67  1  0  0  0  0
 60 66  2  0  0  0  0
 61 67  2  0  0  0  0
 62 68  1  0  0  0  0
 63 69  1  0  0  0  0
 64 68  2  0  0  0  0
 65 69  2  0  0  0  0
M  CHG  3   1   2  22  -1  23  -1
M  END
> <PUBCHEM_COMPOUND_CID>
15174007

> <PUBCHEM_COMPOUND_CANONICALIZED>
1

> <PUBCHEM_CACTVS_COMPLEXITY>
1960

> <PUBCHEM_CACTVS_HBOND_ACCEPTOR>
24

> <PUBCHEM_CACTVS_HBOND_DONOR>
0

> <PUBCHEM_CACTVS_ROTATABLE_BOND>
4

> <PUBCHEM_CACTVS_SUBSKEYS>
AAADccB/gcAAAAAAAAAABAAAAAAAAWIECAAwYMGAAAAAAACB1AAAHQAAAAAADAiBHggwgJIIEACgAyRiRACCgCAhAiAImCAwZJgIIOLAkJGEIAhggADIyAcQgMAOAAAAAAAAAAAAAAAAAAAAAAAAAAAAAA==

> <PUBCHEM_IUPAC_OPENEYE_NAME>
platinum(2+);5,10,15,20-tetrakis(2,3,4,5,6-pentafluorophenyl)porphyrin-22,24-diide

> <PUBCHEM_IUPAC_CAS_NAME>
platinum(2+);5,10,15,20-tetrakis(2,3,4,5,6-pentafluorophenyl)porphyrin-22,24-diide

> <PUBCHEM_IUPAC_NAME_MARKUP>
platinum(2+);5,10,15,20-tetrakis(2,3,4,5,6-pentafluorophenyl)porphyrin-22,24-diide

> <PUBCHEM_IUPAC_NAME>
platinum(2+);5,10,15,20-tetrakis(2,3,4,5,6-pentafluorophenyl)porphyrin-22,24-diide

> <PUBCHEM_IUPAC_SYSTEMATIC_NAME>
platinum(2+);5,10,15,20-tetrakis[2,3,4,5,6-pentakis(fluoranyl)phenyl]porphyrin-22,24-diide

> <PUBCHEM_IUPAC_TRADITIONAL_NAME>
platinum(2+);5,10,15,20-tetrakis(2,3,4,5,6-pentafluorophenyl)porphine-22,24-diide

> <PUBCHEM_IUPAC_INCHI>
InChI=1S/C44H8F20N4.Pt/c45-25-21(26(46)34(54)41(61)33(25)53)17-9-1-2-10(65-9)18(22-27(47)35(55)42(62)36(56)28(22)48)12-5-6-14(67-12)20(24-31(51)39(59)44(64)40(60)32(24)52)16-8-7-15(68-16)19(13-4-3-11(17)66-13)23-29(49)37(57)43(63)38(58)30(23)50;/h1-8H;/q-2;+2

> <PUBCHEM_IUPAC_INCHIKEY>
OXKPMKLTIJUTAM-UHFFFAOYSA-N

> <PUBCHEM_EXACT_MASS>
1167.007754

> <PUBCHEM_MOLECULAR_FORMULA>
C44H8F20N4Pt

> <PUBCHEM_MOLECULAR_WEIGHT>
1167.6

> <PUBCHEM_SMILES>
C1=CC2=C(C3=NC(=C(C4=CC=C([N-]4)C(=C5C=CC(=N5)C(=C1[N-]2)C6=C(C(=C(C(=C6F)F)F)F)F)C7=C(C(=C(C(=C7F)F)F)F)F)C8=C(C(=C(C(=C8F)F)F)F)F)C=C3)C9=C(C(=C(C(=C9F)F)F)F)F.[Pt+2]

> <PUBCHEM_OPENEYE_CAN_SMILES>
C1=CC2=C(C3=NC(=C(C4=CC=C([N-]4)C(=C5C=CC(=N5)C(=C1[N-]2)C6=C(C(=C(C(=C6F)F)F)F)F)C7=C(C(=C(C(=C7F)F)F)F)F)C8=C(C(=C(C(=C8F)F)F)F)F)C=C3)C9=C(C(=C(C(=C9F)F)F)F)F.[Pt+2]

> <PUBCHEM_OPENEYE_ISO_SMILES>
C1=CC2=C(C3=NC(=C(C4=CC=C([N-]4)C(=C5C=CC(=N5)C(=C1[N-]2)C6=C(C(=C(C(=C6F)F)F)F)F)C7=C(C(=C(C(=C7F)F)F)F)F)C8=C(C(=C(C(=C8F)F)F)F)F)C=C3)C9=C(C(=C(C(=C9F)F)F)F)F.[Pt+2]

> <PUBCHEM_CACTVS_TPSA>
26.7

> <PUBCHEM_MONOISOTOPIC_WEIGHT>
1167.007754

> <PUBCHEM_TOTAL_CHARGE>
0

> <PUBCHEM_HEAVY_ATOM_COUNT>
69

> <PUBCHEM_ATOM_DEF_STEREO_COUNT>
0

> <PUBCHEM_ATOM_UDEF_STEREO_COUNT>
0

> <PUBCHEM_BOND_DEF_STEREO_COUNT>
0

> <PUBCHEM_BOND_UDEF_STEREO_COUNT>
0

> <PUBCHEM_ISOTOPIC_ATOM_COUNT>
0

> <PUBCHEM_COMPONENT_COUNT>
2

> <PUBCHEM_CACTVS_TAUTO_COUNT>
-1

> <PUBCHEM_NONSTANDARDBOND>
1  22  6
1  23  6

> <PUBCHEM_COORDINATE_TYPE>
1
5
255

> <PUBCHEM_BONDANNOTATIONS>
22  26  8
22  27  8
23  28  8
23  29  8
24  38  8
24  40  8
25  39  8
25  41  8
26  30  8
26  34  8
27  31  8
27  35  8
28  32  8
28  36  8
29  33  8
29  37  8
30  38  8
31  39  8
32  40  8
33  41  8
34  35  8
36  37  8
42  50  8
42  52  8
43  51  8
43  53  8
44  54  8
44  56  8
45  55  8
45  57  8
50  60  8
51  61  8
52  58  8
53  59  8
54  64  8
55  65  8
56  62  8
57  63  8
58  66  8
59  67  8
60  66  8
61  67  8
62  68  8
63  69  8
64  68  8
65  69  8

$$$$
