159456
  -OEChem-04042505522D

  2  0  0     0  0  0  0  0  0999 V2000
    3.0000    0.0000    0.0000 Fe  0  1  0  0  0  0  0  0  0  0  0  0
    2.0000    0.0000    0.0000 P   0  7  0  0  0  0  0  0  0  0  0  0
M  CHG  2   1   3   2  -3
M  END
> <PUBCHEM_COMPOUND_CID>
159456

> <PUBCHEM_COMPOUND_CANONICALIZED>
1

> <PUBCHEM_CACTVS_COMPLEXITY>
0

> <PUBCHEM_CACTVS_HBOND_ACCEPTOR>
1

> <PUBCHEM_CACTVS_HBOND_DONOR>
0

> <PUBCHEM_CACTVS_ROTATABLE_BOND>
0

> <PUBCHEM_CACTVS_SUBSKEYS>
AAADcQAAAAIAAAAgAAAAAAAAAAAAAAAAAAAAAAAAAAAAAAAAAAAAAAAAAAAAAAAAAAAAAAAAAAAAAAAAAAAAAAAAAAAAAAAAAAAAAAAAAAAAAAAAAAAAAAAAAAAAAAAAAAAAAAAAAAAAAAAAAAAAAAAAAA==

> <PUBCHEM_IUPAC_OPENEYE_NAME>
ferric;phosphorus(3-)

> <PUBCHEM_IUPAC_CAS_NAME>
iron(3+);phosphorus(3-)

> <PUBCHEM_IUPAC_NAME_MARKUP>
iron(3+);phosphorus(3-)

> <PUBCHEM_IUPAC_NAME>
iron(3+);phosphorus(3-)

> <PUBCHEM_IUPAC_SYSTEMATIC_NAME>
iron(3+);phosphorus(3-)

> <PUBCHEM_IUPAC_TRADITIONAL_NAME>
ferric;phosphorus(3-)

> <PUBCHEM_IUPAC_INCHI>
InChI=1S/Fe.P/q+3;-3

> <PUBCHEM_IUPAC_INCHIKEY>
JNRQHASIGICJBU-UHFFFAOYSA-N

> <PUBCHEM_EXACT_MASS>
86.908698

> <PUBCHEM_MOLECULAR_FORMULA>
FeP

> <PUBCHEM_MOLECULAR_WEIGHT>
86.82

> <PUBCHEM_SMILES>
[P-3].[Fe+3]

> <PUBCHEM_OPENEYE_CAN_SMILES>
[P-3].[Fe+3]

> <PUBCHEM_OPENEYE_ISO_SMILES>
[P-3].[Fe+3]

> <PUBCHEM_CACTVS_TPSA>
0

> <PUBCHEM_MONOISOTOPIC_WEIGHT>
86.908698

> <PUBCHEM_TOTAL_CHARGE>
0

> <PUBCHEM_HEAVY_ATOM_COUNT>
2

> <PUBCHEM_ATOM_DEF_STEREO_COUNT>
0

> <PUBCHEM_ATOM_UDEF_STEREO_COUNT>
0

> <PUBCHEM_BOND_DEF_STEREO_COUNT>
0

> <PUBCHEM_BOND_UDEF_STEREO_COUNT>
0

> <PUBCHEM_ISOTOPIC_ATOM_COUNT>
0

> <PUBCHEM_COMPONENT_COUNT>
2

> <PUBCHEM_CACTVS_TAUTO_COUNT>
-1

> <PUBCHEM_COORDINATE_TYPE>
1
5
255

$$$$
