15978920
  -OEChem-04042512472D

 60 59  0     1  0  0  0  0  0999 V2000
    9.4651   -0.0950    0.0000 O   0  0  0  0  0  0  0  0  0  0  0  0
    6.0010   -0.0950    0.0000 O   0  0  0  0  0  0  0  0  0  0  0  0
    7.7331   -1.0950    0.0000 O   0  0  0  0  0  0  0  0  0  0  0  0
   10.3312    1.4050    0.0000 O   0  0  0  0  0  0  0  0  0  0  0  0
    4.2690   -1.0950    0.0000 O   0  0  0  0  0  0  0  0  0  0  0  0
    2.5369   -0.0950    0.0000 O   0  0  0  0  0  0  0  0  0  0  0  0
   14.6613   -0.0950    0.0000 C   0  0  0  0  0  0  0  0  0  0  0  0
   15.5273    0.4050    0.0000 C   0  0  0  0  0  0  0  0  0  0  0  0
   13.7953    0.4050    0.0000 C   0  0  0  0  0  0  0  0  0  0  0  0
   16.3933   -0.0950    0.0000 C   0  0  0  0  0  0  0  0  0  0  0  0
   12.9292   -0.0950    0.0000 C   0  0  0  0  0  0  0  0  0  0  0  0
   17.2594    0.4050    0.0000 C   0  0  0  0  0  0  0  0  0  0  0  0
   12.0632    0.4050    0.0000 C   0  0  0  0  0  0  0  0  0  0  0  0
   18.1254   -0.0950    0.0000 C   0  0  0  0  0  0  0  0  0  0  0  0
   11.1972   -0.0950    0.0000 C   0  0  0  0  0  0  0  0  0  0  0  0
   18.9914    0.4050    0.0000 C   0  0  0  0  0  0  0  0  0  0  0  0
   19.8574   -0.0950    0.0000 C   0  0  0  0  0  0  0  0  0  0  0  0
   10.3312    0.4050    0.0000 C   0  0  0  0  0  0  0  0  0  0  0  0
    7.7331   -0.0950    0.0000 C   0  0  3  0  0  0  0  0  0  0  0  0
    8.5991    0.4050    0.0000 C   0  0  0  0  0  0  0  0  0  0  0  0
    6.8671    0.4050    0.0000 C   0  0  0  0  0  0  0  0  0  0  0  0
    5.1350    0.4050    0.0000 C   0  0  0  0  0  0  0  0  0  0  0  0
    4.2690   -0.0950    0.0000 C   0  0  3  0  0  0  0  0  0  0  0  0
    3.4030    0.4050    0.0000 C   0  0  0  0  0  0  0  0  0  0  0  0
   14.2628   -0.5699    0.0000 H   0  0  0  0  0  0  0  0  0  0  0  0
   15.0598   -0.5699    0.0000 H   0  0  0  0  0  0  0  0  0  0  0  0
   15.9258    0.8799    0.0000 H   0  0  0  0  0  0  0  0  0  0  0  0
   15.1288    0.8799    0.0000 H   0  0  0  0  0  0  0  0  0  0  0  0
   14.1938    0.8799    0.0000 H   0  0  0  0  0  0  0  0  0  0  0  0
   13.3967    0.8799    0.0000 H   0  0  0  0  0  0  0  0  0  0  0  0
   15.9948   -0.5699    0.0000 H   0  0  0  0  0  0  0  0  0  0  0  0
   16.7919   -0.5699    0.0000 H   0  0  0  0  0  0  0  0  0  0  0  0
   12.5307   -0.5699    0.0000 H   0  0  0  0  0  0  0  0  0  0  0  0
   13.3278   -0.5699    0.0000 H   0  0  0  0  0  0  0  0  0  0  0  0
   17.6579    0.8799    0.0000 H   0  0  0  0  0  0  0  0  0  0  0  0
   16.8608    0.8799    0.0000 H   0  0  0  0  0  0  0  0  0  0  0  0
   12.4617    0.8799    0.0000 H   0  0  0  0  0  0  0  0  0  0  0  0
   11.6647    0.8799    0.0000 H   0  0  0  0  0  0  0  0  0  0  0  0
   17.7269   -0.5699    0.0000 H   0  0  0  0  0  0  0  0  0  0  0  0
   18.5239   -0.5699    0.0000 H   0  0  0  0  0  0  0  0  0  0  0  0
   10.7987   -0.5699    0.0000 H   0  0  0  0  0  0  0  0  0  0  0  0
   11.5957   -0.5699    0.0000 H   0  0  0  0  0  0  0  0  0  0  0  0
   19.3899    0.8799    0.0000 H   0  0  0  0  0  0  0  0  0  0  0  0
   18.5929    0.8799    0.0000 H   0  0  0  0  0  0  0  0  0  0  0  0
   19.5474   -0.6319    0.0000 H   0  0  0  0  0  0  0  0  0  0  0  0
   20.3944   -0.4050    0.0000 H   0  0  0  0  0  0  0  0  0  0  0  0
   20.1674    0.4419    0.0000 H   0  0  0  0  0  0  0  0  0  0  0  0
    8.2700   -0.4050    0.0000 H   0  0  0  0  0  0  0  0  0  0  0  0
    8.9976    0.8799    0.0000 H   0  0  0  0  0  0  0  0  0  0  0  0
    8.2006    0.8799    0.0000 H   0  0  0  0  0  0  0  0  0  0  0  0
    7.2656    0.8799    0.0000 H   0  0  0  0  0  0  0  0  0  0  0  0
    6.4685    0.8799    0.0000 H   0  0  0  0  0  0  0  0  0  0  0  0
    5.5335    0.8799    0.0000 H   0  0  0  0  0  0  0  0  0  0  0  0
    4.7365    0.8799    0.0000 H   0  0  0  0  0  0  0  0  0  0  0  0
    4.8059   -0.4050    0.0000 H   0  0  0  0  0  0  0  0  0  0  0  0
    3.8015    0.8799    0.0000 H   0  0  0  0  0  0  0  0  0  0  0  0
    3.0044    0.8799    0.0000 H   0  0  0  0  0  0  0  0  0  0  0  0
    7.1962   -1.4050    0.0000 H   0  0  0  0  0  0  0  0  0  0  0  0
    3.7320   -1.4050    0.0000 H   0  0  0  0  0  0  0  0  0  0  0  0
    2.0000    0.2150    0.0000 H   0  0  0  0  0  0  0  0  0  0  0  0
  1 18  1  0  0  0  0
  1 20  1  0  0  0  0
  2 21  1  0  0  0  0
  2 22  1  0  0  0  0
  3 19  1  0  0  0  0
  3 58  1  0  0  0  0
  4 18  2  0  0  0  0
  5 23  1  0  0  0  0
  5 59  1  0  0  0  0
  6 24  1  0  0  0  0
  6 60  1  0  0  0  0
  7  8  1  0  0  0  0
  7  9  1  0  0  0  0
  7 25  1  0  0  0  0
  7 26  1  0  0  0  0
  8 10  1  0  0  0  0
  8 27  1  0  0  0  0
  8 28  1  0  0  0  0
  9 11  1  0  0  0  0
  9 29  1  0  0  0  0
  9 30  1  0  0  0  0
 10 12  1  0  0  0  0
 10 31  1  0  0  0  0
 10 32  1  0  0  0  0
 11 13  1  0  0  0  0
 11 33  1  0  0  0  0
 11 34  1  0  0  0  0
 12 14  1  0  0  0  0
 12 35  1  0  0  0  0
 12 36  1  0  0  0  0
 13 15  1  0  0  0  0
 13 37  1  0  0  0  0
 13 38  1  0  0  0  0
 14 16  1  0  0  0  0
 14 39  1  0  0  0  0
 14 40  1  0  0  0  0
 15 18  1  0  0  0  0
 15 41  1  0  0  0  0
 15 42  1  0  0  0  0
 16 17  1  0  0  0  0
 16 43  1  0  0  0  0
 16 44  1  0  0  0  0
 17 45  1  0  0  0  0
 17 46  1  0  0  0  0
 17 47  1  0  0  0  0
 19 20  1  0  0  0  0
 19 21  1  0  0  0  0
 19 48  1  0  0  0  0
 20 49  1  0  0  0  0
 20 50  1  0  0  0  0
 21 51  1  0  0  0  0
 21 52  1  0  0  0  0
 22 23  1  0  0  0  0
 22 53  1  0  0  0  0
 22 54  1  0  0  0  0
 23 24  1  0  0  0  0
 23 55  1  0  0  0  0
 24 56  1  0  0  0  0
 24 57  1  0  0  0  0
M  END
> <PUBCHEM_COMPOUND_CID>
15978920

> <PUBCHEM_COMPOUND_CANONICALIZED>
1

> <PUBCHEM_CACTVS_COMPLEXITY>
285

> <PUBCHEM_CACTVS_HBOND_ACCEPTOR>
6

> <PUBCHEM_CACTVS_HBOND_DONOR>
3

> <PUBCHEM_CACTVS_ROTATABLE_BOND>
18

> <PUBCHEM_CACTVS_SUBSKEYS>
AAADcfB4OAAAAAAAAAAAAAAAAAAAAAAAAAAAAAAAAAAAAAAAAAAAGgAACAAACBSggAICCAAABgAIAACQCAAAAAAAAAAAAAEAAAABEBIAAAACQAAFAAADAAGIyKCAAAAAAAAAAAAAAAAAAAAAAAAAAAAAAA==

> <PUBCHEM_IUPAC_OPENEYE_NAME>
[3-(2,3-dihydroxypropoxy)-2-hydroxy-propyl] dodecanoate

> <PUBCHEM_IUPAC_CAS_NAME>
dodecanoic acid [3-(2,3-dihydroxypropoxy)-2-hydroxypropyl] ester

> <PUBCHEM_IUPAC_NAME_MARKUP>
[3-(2,3-dihydroxypropoxy)-2-hydroxypropyl] dodecanoate

> <PUBCHEM_IUPAC_NAME>
[3-(2,3-dihydroxypropoxy)-2-hydroxypropyl] dodecanoate

> <PUBCHEM_IUPAC_SYSTEMATIC_NAME>
[3-[2,3-bis(oxidanyl)propoxy]-2-oxidanyl-propyl] dodecanoate

> <PUBCHEM_IUPAC_TRADITIONAL_NAME>
lauric acid (3-glyceryloxy-2-hydroxy-propyl) ester

> <PUBCHEM_IUPAC_INCHI>
InChI=1S/C18H36O6/c1-2-3-4-5-6-7-8-9-10-11-18(22)24-15-17(21)14-23-13-16(20)12-19/h16-17,19-21H,2-15H2,1H3

> <PUBCHEM_IUPAC_INCHIKEY>
OGELJRHPEZALCC-UHFFFAOYSA-N

> <PUBCHEM_XLOGP3>
3.4

> <PUBCHEM_EXACT_MASS>
348.25118886

> <PUBCHEM_MOLECULAR_FORMULA>
C18H36O6

> <PUBCHEM_MOLECULAR_WEIGHT>
348.5

> <PUBCHEM_SMILES>
CCCCCCCCCCCC(=O)OCC(COCC(CO)O)O

> <PUBCHEM_OPENEYE_CAN_SMILES>
CCCCCCCCCCCC(=O)OCC(COCC(CO)O)O

> <PUBCHEM_OPENEYE_ISO_SMILES>
CCCCCCCCCCCC(=O)OCC(COCC(CO)O)O

> <PUBCHEM_CACTVS_TPSA>
96.2

> <PUBCHEM_MONOISOTOPIC_WEIGHT>
348.25118886

> <PUBCHEM_TOTAL_CHARGE>
0

> <PUBCHEM_HEAVY_ATOM_COUNT>
24

> <PUBCHEM_ATOM_DEF_STEREO_COUNT>
0

> <PUBCHEM_ATOM_UDEF_STEREO_COUNT>
2

> <PUBCHEM_BOND_DEF_STEREO_COUNT>
0

> <PUBCHEM_BOND_UDEF_STEREO_COUNT>
0

> <PUBCHEM_ISOTOPIC_ATOM_COUNT>
0

> <PUBCHEM_COMPONENT_COUNT>
1

> <PUBCHEM_CACTVS_TAUTO_COUNT>
-1

> <PUBCHEM_COORDINATE_TYPE>
1
5
255

> <PUBCHEM_BONDANNOTATIONS>
19  3  3
23  5  3

$$$$
