16070661
  -OEChem-04042512452D

 22 21  0     1  0  0  0  0  0999 V2000
    5.6350   -1.0005    0.0000 O   0  0  0  0  0  0  0  0  0  0  0  0
    6.8671   -0.1345    0.0000 O   0  0  0  0  0  0  0  0  0  0  0  0
    6.0010    1.3655    0.0000 O   0  0  0  0  0  0  0  0  0  0  0  0
    3.4030   -2.1345    0.0000 O   0  0  0  0  0  0  0  0  0  0  0  0
    3.1350    1.5976    0.0000 O   0  0  0  0  0  0  0  0  0  0  0  0
    5.1350   -2.1345    0.0000 O   0  0  0  0  0  0  0  0  0  0  0  0
    3.1350   -0.1345    0.0000 O   0  0  0  0  0  0  0  0  0  0  0  0
    2.5369   -1.6345    0.0000 O   0  0  0  0  0  0  0  0  0  0  0  0
    5.1350   -0.1345    0.0000 C   0  0  3  0  0  0  0  0  0  0  0  0
    4.2690   -0.6345    0.0000 C   0  0  0  0  0  0  0  0  0  0  0  0
    4.6350    0.7315    0.0000 C   0  0  0  0  0  0  0  0  0  0  0  0
    6.0010    0.3655    0.0000 C   0  0  0  0  0  0  0  0  0  0  0  0
    4.2690   -1.6345    0.0000 C   0  0  0  0  0  0  0  0  0  0  0  0
    3.6350    0.7315    0.0000 C   0  0  0  0  0  0  0  0  0  0  0  0
    4.0569   -0.0519    0.0000 H   0  0  0  0  0  0  0  0  0  0  0  0
    3.6584   -0.7422    0.0000 H   0  0  0  0  0  0  0  0  0  0  0  0
    5.2176    0.9436    0.0000 H   0  0  0  0  0  0  0  0  0  0  0  0
    4.5274    1.3421    0.0000 H   0  0  0  0  0  0  0  0  0  0  0  0
    5.3250   -1.5374    0.0000 H   0  0  0  0  0  0  0  0  0  0  0  0
    7.4040    0.1755    0.0000 H   0  0  0  0  0  0  0  0  0  0  0  0
    3.4450    2.1345    0.0000 H   0  0  0  0  0  0  0  0  0  0  0  0
    2.0000   -1.9445    0.0000 H   0  0  0  0  0  0  0  0  0  0  0  0
  1  9  1  0  0  0  0
  1 19  1  0  0  0  0
  2 12  1  0  0  0  0
  2 20  1  0  0  0  0
  3 12  2  0  0  0  0
  4  8  1  0  0  0  0
  4 13  1  0  0  0  0
  5 14  1  0  0  0  0
  5 21  1  0  0  0  0
  6 13  2  0  0  0  0
  7 14  2  0  0  0  0
  8 22  1  0  0  0  0
  9 10  1  0  0  0  0
  9 11  1  0  0  0  0
  9 12  1  0  0  0  0
 10 13  1  0  0  0  0
 10 15  1  0  0  0  0
 10 16  1  0  0  0  0
 11 14  1  0  0  0  0
 11 17  1  0  0  0  0
 11 18  1  0  0  0  0
M  END
> <PUBCHEM_COMPOUND_CID>
16070661

> <PUBCHEM_COMPOUND_CANONICALIZED>
1

> <PUBCHEM_CACTVS_COMPLEXITY>
259

> <PUBCHEM_CACTVS_HBOND_ACCEPTOR>
8

> <PUBCHEM_CACTVS_HBOND_DONOR>
4

> <PUBCHEM_CACTVS_ROTATABLE_BOND>
6

> <PUBCHEM_CACTVS_SUBSKEYS>
AAADccBgPAAAAAAAAAAAAAAAAAAAAAAAAAAAAAAAAAAAAAAAAAAAGgAADAAADESAgAAACAAAAgAIAACQCAIAAAAAAAAAAAFAAAABABYAAAAAQAAFIAABAADLJgAKAAAAAAAAAAAAAAAAAAAAAAAAAAAAAA==

> <PUBCHEM_IUPAC_OPENEYE_NAME>
2-(2-hydroperoxy-2-oxo-ethyl)-2-hydroxy-butanedioic acid

> <PUBCHEM_IUPAC_CAS_NAME>
2-(2-hydroperoxy-2-oxoethyl)-2-hydroxybutanedioic acid

> <PUBCHEM_IUPAC_NAME_MARKUP>
2-(2-hydroperoxy-2-oxoethyl)-2-hydroxybutanedioic acid

> <PUBCHEM_IUPAC_NAME>
2-(2-hydroperoxy-2-oxoethyl)-2-hydroxybutanedioic acid

> <PUBCHEM_IUPAC_SYSTEMATIC_NAME>
2-[2-(dioxidanyl)-2-oxidanylidene-ethyl]-2-oxidanyl-butanedioic acid

> <PUBCHEM_IUPAC_TRADITIONAL_NAME>
2-(2-hydroperoxy-2-keto-ethyl)-2-hydroxy-succinic acid

> <PUBCHEM_IUPAC_INCHI>
InChI=1S/C6H8O8/c7-3(8)1-6(12,5(10)11)2-4(9)14-13/h12-13H,1-2H2,(H,7,8)(H,10,11)

> <PUBCHEM_IUPAC_INCHIKEY>
LRDUPNFEHGGCHQ-UHFFFAOYSA-N

> <PUBCHEM_XLOGP3>
-1.9

> <PUBCHEM_EXACT_MASS>
208.02191721

> <PUBCHEM_MOLECULAR_FORMULA>
C6H8O8

> <PUBCHEM_MOLECULAR_WEIGHT>
208.12

> <PUBCHEM_SMILES>
C(C(=O)O)C(CC(=O)OO)(C(=O)O)O

> <PUBCHEM_OPENEYE_CAN_SMILES>
C(C(=O)O)C(CC(=O)OO)(C(=O)O)O

> <PUBCHEM_OPENEYE_ISO_SMILES>
C(C(=O)O)C(CC(=O)OO)(C(=O)O)O

> <PUBCHEM_CACTVS_TPSA>
141

> <PUBCHEM_MONOISOTOPIC_WEIGHT>
208.02191721

> <PUBCHEM_TOTAL_CHARGE>
0

> <PUBCHEM_HEAVY_ATOM_COUNT>
14

> <PUBCHEM_ATOM_DEF_STEREO_COUNT>
0

> <PUBCHEM_ATOM_UDEF_STEREO_COUNT>
1

> <PUBCHEM_BOND_DEF_STEREO_COUNT>
0

> <PUBCHEM_BOND_UDEF_STEREO_COUNT>
0

> <PUBCHEM_ISOTOPIC_ATOM_COUNT>
0

> <PUBCHEM_COMPONENT_COUNT>
1

> <PUBCHEM_CACTVS_TAUTO_COUNT>
-1

> <PUBCHEM_COORDINATE_TYPE>
1
5
255

> <PUBCHEM_BONDANNOTATIONS>
9  1  3

$$$$
