160961
  -OEChem-04042505512D

 29 12  0     0  0  0  0  0  0999 V2000
    5.4641    4.8660    0.0000 Ca  0  2  0  0  0  0  0  0  0  0  0  0
    0.8660    4.3660    0.0000 Ca  0  2  0  0  0  0  0  0  0  0  0  0
    2.5981    4.3660    0.0000 Ca  0  2  0  0  0  0  0  0  0  0  0  0
    5.8971    8.7320    0.0000 Ca  0  2  0  0  0  0  0  0  0  0  0  0
    7.0622    0.0000    0.0000 Ca  0  2  0  0  0  0  0  0  0  0  0  0
    8.9282    4.8660    0.0000 Ca  0  2  0  0  0  0  0  0  0  0  0  0
    7.1962    4.8660    0.0000 S   0  0  0  0  0  0  0  0  0  0  0  0
   10.6603    4.8660    0.0000 S   0  0  0  0  0  0  0  0  0  0  0  0
    8.0622    1.0000    0.0000 S   0  0  0  0  0  0  0  0  0  0  0  0
    7.6292    8.7320    0.0000 Al  0  1  0  0  0  0  0  0  0  0  0  0
    9.3612    8.7320    0.0000 Al  0  1  0  0  0  0  0  0  0  0  0  0
    8.0622    5.3660    0.0000 O   0  5  0  0  0  0  0  0  0  0  0  0
    6.3301    4.3660    0.0000 O   0  5  0  0  0  0  0  0  0  0  0  0
    9.7942    5.3660    0.0000 O   0  5  0  0  0  0  0  0  0  0  0  0
    4.5981    4.3660    0.0000 O   0  5  0  0  0  0  0  0  0  0  0  0
    7.0622    1.0000    0.0000 O   0  5  0  0  0  0  0  0  0  0  0  0
    8.0622    0.0000    0.0000 O   0  5  0  0  0  0  0  0  0  0  0  0
    6.6962    5.7320    0.0000 O   0  0  0  0  0  0  0  0  0  0  0  0
    7.6962    4.0000    0.0000 O   0  0  0  0  0  0  0  0  0  0  0  0
   11.5263    4.3660    0.0000 O   0  0  0  0  0  0  0  0  0  0  0  0
   11.1603    5.7320    0.0000 O   0  0  0  0  0  0  0  0  0  0  0  0
    9.0622    1.0000    0.0000 O   0  0  0  0  0  0  0  0  0  0  0  0
    8.0622    2.0000    0.0000 O   0  0  0  0  0  0  0  0  0  0  0  0
    1.7320    4.8660    0.0000 O   0  6  0  0  0  0  0  0  0  0  0  0
    0.0000    4.8660    0.0000 O   0  6  0  0  0  0  0  0  0  0  0  0
    6.7631    9.2320    0.0000 O   0  6  0  0  0  0  0  0  0  0  0  0
    7.6292    7.7320    0.0000 O   0  6  0  0  0  0  0  0  0  0  0  0
    8.4952    9.2320    0.0000 O   0  6  0  0  0  0  0  0  0  0  0  0
   10.2272    9.2320    0.0000 O   0  6  0  0  0  0  0  0  0  0  0  0
  7 12  1  0  0  0  0
  7 13  1  0  0  0  0
  7 18  2  0  0  0  0
  7 19  2  0  0  0  0
  8 14  1  0  0  0  0
  8 15  1  0  0  0  0
  8 20  2  0  0  0  0
  8 21  2  0  0  0  0
  9 16  1  0  0  0  0
  9 17  1  0  0  0  0
  9 22  2  0  0  0  0
  9 23  2  0  0  0  0
M  CHG  8   1   2   2   2   3   2   4   2   5   2   6   2  10   3  11   3
M  CHG  8  12  -1  13  -1  14  -1  15  -1  16  -1  17  -1  24  -2  25  -2
M  CHG  4  26  -2  27  -2  28  -2  29  -2
M  END
> <PUBCHEM_COMPOUND_CID>
160961

> <PUBCHEM_COMPOUND_CANONICALIZED>
1

> <PUBCHEM_CACTVS_COMPLEXITY>
62.2

> <PUBCHEM_CACTVS_HBOND_ACCEPTOR>
18

> <PUBCHEM_CACTVS_HBOND_DONOR>
0

> <PUBCHEM_CACTVS_ROTATABLE_BOND>
0

> <PUBCHEM_CACTVS_SUBSKEYS>
AAADcQAAPgBgABgAAAAAAAAAAAAAAAAAAAAAAAAAAAAAAAAAAAAAAAAAAAAAAAAAAAAAAAAAAAAAAAAAADAAAAAAAAAAAAAAAAAAAAAAAAAAAAAAAAAAAAAAAAAAAAAAAAAAAAAAAAAAAAAAAAAAAAAAAA==

> <PUBCHEM_IUPAC_OPENEYE_NAME>
dialuminum;hexacalcium;oxygen(2-);trisulfate

> <PUBCHEM_IUPAC_CAS_NAME>
dialuminum;hexacalcium;oxygen(2-);trisulfate

> <PUBCHEM_IUPAC_NAME_MARKUP>
dialuminum;hexacalcium;oxygen(2-);trisulfate

> <PUBCHEM_IUPAC_NAME>
dialuminum;hexacalcium;oxygen(2-);trisulfate

> <PUBCHEM_IUPAC_SYSTEMATIC_NAME>
dialuminum;hexacalcium;oxygen(2-);trisulfate

> <PUBCHEM_IUPAC_TRADITIONAL_NAME>
dialuminum;hexacalcium;oxygen(2-);trisulfate

> <PUBCHEM_IUPAC_INCHI>
InChI=1S/2Al.6Ca.3H2O4S.6O/c;;;;;;;;3*1-5(2,3)4;;;;;;/h;;;;;;;;3*(H2,1,2,3,4);;;;;;/q2*+3;6*+2;;;;6*-2/p-6

> <PUBCHEM_IUPAC_INCHIKEY>
FRPRHMFFTRIJHL-UHFFFAOYSA-H

> <PUBCHEM_EXACT_MASS>
677.563299

> <PUBCHEM_MOLECULAR_FORMULA>
Al2Ca6O18S3

> <PUBCHEM_MOLECULAR_WEIGHT>
678.6

> <PUBCHEM_SMILES>
[O-2].[O-2].[O-2].[O-2].[O-2].[O-2].[O-]S(=O)(=O)[O-].[O-]S(=O)(=O)[O-].[O-]S(=O)(=O)[O-].[Al+3].[Al+3].[Ca+2].[Ca+2].[Ca+2].[Ca+2].[Ca+2].[Ca+2]

> <PUBCHEM_OPENEYE_CAN_SMILES>
[O-2].[O-2].[O-2].[O-2].[O-2].[O-2].[O-]S(=O)(=O)[O-].[O-]S(=O)(=O)[O-].[O-]S(=O)(=O)[O-].[Al+3].[Al+3].[Ca+2].[Ca+2].[Ca+2].[Ca+2].[Ca+2].[Ca+2]

> <PUBCHEM_OPENEYE_ISO_SMILES>
[O-2].[O-2].[O-2].[O-2].[O-2].[O-2].[O-]S(=O)(=O)[O-].[O-]S(=O)(=O)[O-].[O-]S(=O)(=O)[O-].[Al+3].[Al+3].[Ca+2].[Ca+2].[Ca+2].[Ca+2].[Ca+2].[Ca+2]

> <PUBCHEM_CACTVS_TPSA>
272

> <PUBCHEM_MONOISOTOPIC_WEIGHT>
677.563299

> <PUBCHEM_TOTAL_CHARGE>
0

> <PUBCHEM_HEAVY_ATOM_COUNT>
29

> <PUBCHEM_ATOM_DEF_STEREO_COUNT>
0

> <PUBCHEM_ATOM_UDEF_STEREO_COUNT>
0

> <PUBCHEM_BOND_DEF_STEREO_COUNT>
0

> <PUBCHEM_BOND_UDEF_STEREO_COUNT>
0

> <PUBCHEM_ISOTOPIC_ATOM_COUNT>
0

> <PUBCHEM_COMPONENT_COUNT>
17

> <PUBCHEM_CACTVS_TAUTO_COUNT>
-1

> <PUBCHEM_COORDINATE_TYPE>
1
5
255

$$$$
