16134382
  -OEChem-04042506012D

129136  0     0  0  0  0  0  0999 V2000
    7.0000   -0.8660    0.0000 O   0  0  0  0  0  0  0  0  0  0  0  0
    7.6340    1.5000    0.0000 O   0  0  0  0  0  0  0  0  0  0  0  0
    9.3660   -1.5000    0.0000 O   0  0  0  0  0  0  0  0  0  0  0  0
   10.0000    0.8660    0.0000 O   0  0  0  0  0  0  0  0  0  0  0  0
    7.0000   -2.5981    0.0000 O   0  0  0  0  0  0  0  0  0  0  0  0
    5.9019    1.5000    0.0000 O   0  0  0  0  0  0  0  0  0  0  0  0
   11.0981   -1.5000    0.0000 O   0  0  0  0  0  0  0  0  0  0  0  0
   10.0000    2.5981    0.0000 O   0  0  0  0  0  0  0  0  0  0  0  0
    4.5000   -0.0000    0.0000 N   0  0  0  0  0  0  0  0  0  0  0  0
    8.5000    4.0000    0.0000 N   0  0  0  0  0  0  0  0  0  0  0  0
    8.5000   -4.0000    0.0000 N   0  0  0  0  0  0  0  0  0  0  0  0
   12.5000    0.0000    0.0000 N   0  0  0  0  0  0  0  0  0  0  0  0
    8.5000    0.0000    0.0000 C   0  0  0  0  0  0  0  0  0  0  0  0
    8.0000   -0.8660    0.0000 C   0  0  0  0  0  0  0  0  0  0  0  0
    7.6340    0.5000    0.0000 C   0  0  0  0  0  0  0  0  0  0  0  0
    9.3660   -0.5000    0.0000 C   0  0  0  0  0  0  0  0  0  0  0  0
    9.0000    0.8660    0.0000 C   0  0  0  0  0  0  0  0  0  0  0  0
    6.5000   -1.7320    0.0000 C   0  0  0  0  0  0  0  0  0  0  0  0
    6.7680    2.0000    0.0000 C   0  0  0  0  0  0  0  0  0  0  0  0
   10.2321   -2.0000    0.0000 C   0  0  0  0  0  0  0  0  0  0  0  0
   10.5000    1.7320    0.0000 C   0  0  0  0  0  0  0  0  0  0  0  0
    5.5000   -1.7320    0.0000 C   0  0  0  0  0  0  0  0  0  0  0  0
    6.7680    3.0000    0.0000 C   0  0  0  0  0  0  0  0  0  0  0  0
   10.2321   -3.0000    0.0000 C   0  0  0  0  0  0  0  0  0  0  0  0
   11.5000    1.7320    0.0000 C   0  0  0  0  0  0  0  0  0  0  0  0
    5.0000   -2.5981    0.0000 C   0  0  0  0  0  0  0  0  0  0  0  0
    5.9019    3.5000    0.0000 C   0  0  0  0  0  0  0  0  0  0  0  0
   11.0981   -3.5000    0.0000 C   0  0  0  0  0  0  0  0  0  0  0  0
   12.0000    2.5981    0.0000 C   0  0  0  0  0  0  0  0  0  0  0  0
    4.0000   -2.5981    0.0000 C   0  0  0  0  0  0  0  0  0  0  0  0
    5.5000   -3.4641    0.0000 C   0  0  0  0  0  0  0  0  0  0  0  0
    5.9019    4.5000    0.0000 C   0  0  0  0  0  0  0  0  0  0  0  0
    5.0359    3.0000    0.0000 C   0  0  0  0  0  0  0  0  0  0  0  0
   11.0981   -4.5000    0.0000 C   0  0  0  0  0  0  0  0  0  0  0  0
   11.9641   -3.0000    0.0000 C   0  0  0  0  0  0  0  0  0  0  0  0
   13.0000    2.5981    0.0000 C   0  0  0  0  0  0  0  0  0  0  0  0
   11.5000    3.4641    0.0000 C   0  0  0  0  0  0  0  0  0  0  0  0
    5.0000   -0.8660    0.0000 C   0  0  0  0  0  0  0  0  0  0  0  0
    7.6340    3.5000    0.0000 C   0  0  0  0  0  0  0  0  0  0  0  0
    9.3660   -3.5000    0.0000 C   0  0  0  0  0  0  0  0  0  0  0  0
   12.0000    0.8660    0.0000 C   0  0  0  0  0  0  0  0  0  0  0  0
    3.5000   -3.4641    0.0000 C   0  0  0  0  0  0  0  0  0  0  0  0
    6.5000   -3.4641    0.0000 C   0  0  0  0  0  0  0  0  0  0  0  0
    5.0359    5.0000    0.0000 C   0  0  0  0  0  0  0  0  0  0  0  0
    4.1699    3.5000    0.0000 C   0  0  0  0  0  0  0  0  0  0  0  0
   11.9641   -5.0000    0.0000 C   0  0  0  0  0  0  0  0  0  0  0  0
   11.9641   -2.0000    0.0000 C   0  0  0  0  0  0  0  0  0  0  0  0
   13.5000    3.4641    0.0000 C   0  0  0  0  0  0  0  0  0  0  0  0
   10.5000    3.4641    0.0000 C   0  0  0  0  0  0  0  0  0  0  0  0
    3.5000   -1.7320    0.0000 C   0  0  0  0  0  0  0  0  0  0  0  0
    5.0000   -4.3301    0.0000 C   0  0  0  0  0  0  0  0  0  0  0  0
    6.7680    5.0000    0.0000 C   0  0  0  0  0  0  0  0  0  0  0  0
    5.0359    2.0000    0.0000 C   0  0  0  0  0  0  0  0  0  0  0  0
   10.2321   -5.0000    0.0000 C   0  0  0  0  0  0  0  0  0  0  0  0
   12.8301   -3.5000    0.0000 C   0  0  0  0  0  0  0  0  0  0  0  0
   13.5000    1.7320    0.0000 C   0  0  0  0  0  0  0  0  0  0  0  0
   12.0000    4.3301    0.0000 C   0  0  0  0  0  0  0  0  0  0  0  0
    2.5000   -3.4641    0.0000 C   0  0  0  0  0  0  0  0  0  0  0  0
    7.0000   -4.3301    0.0000 C   0  0  0  0  0  0  0  0  0  0  0  0
    5.0359    6.0000    0.0000 C   0  0  0  0  0  0  0  0  0  0  0  0
    3.3038    3.0000    0.0000 C   0  0  0  0  0  0  0  0  0  0  0  0
   11.9641   -6.0000    0.0000 C   0  0  0  0  0  0  0  0  0  0  0  0
   12.8301   -1.5000    0.0000 C   0  0  0  0  0  0  0  0  0  0  0  0
   14.5000    3.4641    0.0000 C   0  0  0  0  0  0  0  0  0  0  0  0
   10.0000    4.3301    0.0000 C   0  0  0  0  0  0  0  0  0  0  0  0
    2.5000   -1.7320    0.0000 C   0  0  0  0  0  0  0  0  0  0  0  0
    5.5000   -5.1962    0.0000 C   0  0  0  0  0  0  0  0  0  0  0  0
    6.7680    6.0000    0.0000 C   0  0  0  0  0  0  0  0  0  0  0  0
    4.1699    1.5000    0.0000 C   0  0  0  0  0  0  0  0  0  0  0  0
   10.2321   -6.0000    0.0000 C   0  0  0  0  0  0  0  0  0  0  0  0
   13.6962   -3.0000    0.0000 C   0  0  0  0  0  0  0  0  0  0  0  0
   14.5000    1.7320    0.0000 C   0  0  0  0  0  0  0  0  0  0  0  0
   11.5000    5.1962    0.0000 C   0  0  0  0  0  0  0  0  0  0  0  0
    2.0000   -2.5981    0.0000 C   0  0  0  0  0  0  0  0  0  0  0  0
    6.5000   -5.1962    0.0000 C   0  0  0  0  0  0  0  0  0  0  0  0
    5.9019    6.5000    0.0000 C   0  0  0  0  0  0  0  0  0  0  0  0
    3.3038    2.0000    0.0000 C   0  0  0  0  0  0  0  0  0  0  0  0
   11.0981   -6.5000    0.0000 C   0  0  0  0  0  0  0  0  0  0  0  0
   13.6962   -2.0000    0.0000 C   0  0  0  0  0  0  0  0  0  0  0  0
   15.0000    2.5981    0.0000 C   0  0  0  0  0  0  0  0  0  0  0  0
   10.5000    5.1962    0.0000 C   0  0  0  0  0  0  0  0  0  0  0  0
    7.8923   -1.4766    0.0000 H   0  0  0  0  0  0  0  0  0  0  0  0
    8.5826   -1.0781    0.0000 H   0  0  0  0  0  0  0  0  0  0  0  0
    7.0234    0.6077    0.0000 H   0  0  0  0  0  0  0  0  0  0  0  0
    7.4219   -0.0826    0.0000 H   0  0  0  0  0  0  0  0  0  0  0  0
    9.9766   -0.6077    0.0000 H   0  0  0  0  0  0  0  0  0  0  0  0
    9.5781    0.0826    0.0000 H   0  0  0  0  0  0  0  0  0  0  0  0
    9.1077    1.4766    0.0000 H   0  0  0  0  0  0  0  0  0  0  0  0
    8.4174    1.0781    0.0000 H   0  0  0  0  0  0  0  0  0  0  0  0
    3.8100   -4.0010    0.0000 H   0  0  0  0  0  0  0  0  0  0  0  0
    6.8100   -2.9272    0.0000 H   0  0  0  0  0  0  0  0  0  0  0  0
    4.4990    4.6900    0.0000 H   0  0  0  0  0  0  0  0  0  0  0  0
    4.1699    4.1200    0.0000 H   0  0  0  0  0  0  0  0  0  0  0  0
   12.5010   -4.6900    0.0000 H   0  0  0  0  0  0  0  0  0  0  0  0
   11.4272   -1.6900    0.0000 H   0  0  0  0  0  0  0  0  0  0  0  0
   13.1900    4.0010    0.0000 H   0  0  0  0  0  0  0  0  0  0  0  0
   10.1900    2.9272    0.0000 H   0  0  0  0  0  0  0  0  0  0  0  0
    3.8100   -1.1951    0.0000 H   0  0  0  0  0  0  0  0  0  0  0  0
    4.3800   -4.3301    0.0000 H   0  0  0  0  0  0  0  0  0  0  0  0
    7.3049    4.6900    0.0000 H   0  0  0  0  0  0  0  0  0  0  0  0
    5.5728    1.6900    0.0000 H   0  0  0  0  0  0  0  0  0  0  0  0
    9.6951   -4.6900    0.0000 H   0  0  0  0  0  0  0  0  0  0  0  0
   12.8301   -4.1200    0.0000 H   0  0  0  0  0  0  0  0  0  0  0  0
   13.1900    1.1951    0.0000 H   0  0  0  0  0  0  0  0  0  0  0  0
   12.6200    4.3301    0.0000 H   0  0  0  0  0  0  0  0  0  0  0  0
    2.1900   -4.0010    0.0000 H   0  0  0  0  0  0  0  0  0  0  0  0
    7.6200   -4.3301    0.0000 H   0  0  0  0  0  0  0  0  0  0  0  0
    4.4990    6.3100    0.0000 H   0  0  0  0  0  0  0  0  0  0  0  0
    2.7669    3.3100    0.0000 H   0  0  0  0  0  0  0  0  0  0  0  0
   12.5010   -6.3100    0.0000 H   0  0  0  0  0  0  0  0  0  0  0  0
   12.8301   -0.8800    0.0000 H   0  0  0  0  0  0  0  0  0  0  0  0
   14.8100    4.0010    0.0000 H   0  0  0  0  0  0  0  0  0  0  0  0
    9.3800    4.3301    0.0000 H   0  0  0  0  0  0  0  0  0  0  0  0
    2.1900   -1.1951    0.0000 H   0  0  0  0  0  0  0  0  0  0  0  0
    5.1900   -5.7331    0.0000 H   0  0  0  0  0  0  0  0  0  0  0  0
    7.3049    6.3100    0.0000 H   0  0  0  0  0  0  0  0  0  0  0  0
    4.1699    0.8800    0.0000 H   0  0  0  0  0  0  0  0  0  0  0  0
    9.6951   -6.3100    0.0000 H   0  0  0  0  0  0  0  0  0  0  0  0
   14.2331   -3.3100    0.0000 H   0  0  0  0  0  0  0  0  0  0  0  0
   14.8100    1.1951    0.0000 H   0  0  0  0  0  0  0  0  0  0  0  0
   11.8100    5.7331    0.0000 H   0  0  0  0  0  0  0  0  0  0  0  0
    1.3800   -2.5981    0.0000 H   0  0  0  0  0  0  0  0  0  0  0  0
    6.8100   -5.7331    0.0000 H   0  0  0  0  0  0  0  0  0  0  0  0
    5.9019    7.1200    0.0000 H   0  0  0  0  0  0  0  0  0  0  0  0
    2.7669    1.6900    0.0000 H   0  0  0  0  0  0  0  0  0  0  0  0
   11.0981   -7.1200    0.0000 H   0  0  0  0  0  0  0  0  0  0  0  0
   14.2331   -1.6900    0.0000 H   0  0  0  0  0  0  0  0  0  0  0  0
   15.6200    2.5981    0.0000 H   0  0  0  0  0  0  0  0  0  0  0  0
   10.1900    5.7331    0.0000 H   0  0  0  0  0  0  0  0  0  0  0  0
  1 14  1  0  0  0  0
  1 18  1  0  0  0  0
  2 15  1  0  0  0  0
  2 19  1  0  0  0  0
  3 16  1  0  0  0  0
  3 20  1  0  0  0  0
  4 17  1  0  0  0  0
  4 21  1  0  0  0  0
  5 18  2  0  0  0  0
  6 19  2  0  0  0  0
  7 20  2  0  0  0  0
  8 21  2  0  0  0  0
  9 38  3  0  0  0  0
 10 39  3  0  0  0  0
 11 40  3  0  0  0  0
 12 41  3  0  0  0  0
 13 14  1  0  0  0  0
 13 15  1  0  0  0  0
 13 16  1  0  0  0  0
 13 17  1  0  0  0  0
 14 82  1  0  0  0  0
 14 83  1  0  0  0  0
 15 84  1  0  0  0  0
 15 85  1  0  0  0  0
 16 86  1  0  0  0  0
 16 87  1  0  0  0  0
 17 88  1  0  0  0  0
 17 89  1  0  0  0  0
 18 22  1  0  0  0  0
 19 23  1  0  0  0  0
 20 24  1  0  0  0  0
 21 25  1  0  0  0  0
 22 26  2  0  0  0  0
 22 38  1  0  0  0  0
 23 27  2  0  0  0  0
 23 39  1  0  0  0  0
 24 28  2  0  0  0  0
 24 40  1  0  0  0  0
 25 29  2  0  0  0  0
 25 41  1  0  0  0  0
 26 30  1  0  0  0  0
 26 31  1  0  0  0  0
 27 32  1  0  0  0  0
 27 33  1  0  0  0  0
 28 34  1  0  0  0  0
 28 35  1  0  0  0  0
 29 36  1  0  0  0  0
 29 37  1  0  0  0  0
 30 42  2  0  0  0  0
 30 50  1  0  0  0  0
 31 43  2  0  0  0  0
 31 51  1  0  0  0  0
 32 44  2  0  0  0  0
 32 52  1  0  0  0  0
 33 45  2  0  0  0  0
 33 53  1  0  0  0  0
 34 46  2  0  0  0  0
 34 54  1  0  0  0  0
 35 47  2  0  0  0  0
 35 55  1  0  0  0  0
 36 48  2  0  0  0  0
 36 56  1  0  0  0  0
 37 49  2  0  0  0  0
 37 57  1  0  0  0  0
 42 58  1  0  0  0  0
 42 90  1  0  0  0  0
 43 59  1  0  0  0  0
 43 91  1  0  0  0  0
 44 60  1  0  0  0  0
 44 92  1  0  0  0  0
 45 61  1  0  0  0  0
 45 93  1  0  0  0  0
 46 62  1  0  0  0  0
 46 94  1  0  0  0  0
 47 63  1  0  0  0  0
 47 95  1  0  0  0  0
 48 64  1  0  0  0  0
 48 96  1  0  0  0  0
 49 65  1  0  0  0  0
 49 97  1  0  0  0  0
 50 66  2  0  0  0  0
 50 98  1  0  0  0  0
 51 67  2  0  0  0  0
 51 99  1  0  0  0  0
 52 68  2  0  0  0  0
 52100  1  0  0  0  0
 53 69  2  0  0  0  0
 53101  1  0  0  0  0
 54 70  2  0  0  0  0
 54102  1  0  0  0  0
 55 71  2  0  0  0  0
 55103  1  0  0  0  0
 56 72  2  0  0  0  0
 56104  1  0  0  0  0
 57 73  2  0  0  0  0
 57105  1  0  0  0  0
 58 74  2  0  0  0  0
 58106  1  0  0  0  0
 59 75  2  0  0  0  0
 59107  1  0  0  0  0
 60 76  2  0  0  0  0
 60108  1  0  0  0  0
 61 77  2  0  0  0  0
 61109  1  0  0  0  0
 62 78  2  0  0  0  0
 62110  1  0  0  0  0
 63 79  2  0  0  0  0
 63111  1  0  0  0  0
 64 80  2  0  0  0  0
 64112  1  0  0  0  0
 65 81  2  0  0  0  0
 65113  1  0  0  0  0
 66 74  1  0  0  0  0
 66114  1  0  0  0  0
 67 75  1  0  0  0  0
 67115  1  0  0  0  0
 68 76  1  0  0  0  0
 68116  1  0  0  0  0
 69 77  1  0  0  0  0
 69117  1  0  0  0  0
 70 78  1  0  0  0  0
 70118  1  0  0  0  0
 71 79  1  0  0  0  0
 71119  1  0  0  0  0
 72 80  1  0  0  0  0
 72120  1  0  0  0  0
 73 81  1  0  0  0  0
 73121  1  0  0  0  0
 74122  1  0  0  0  0
 75123  1  0  0  0  0
 76124  1  0  0  0  0
 77125  1  0  0  0  0
 78126  1  0  0  0  0
 79127  1  0  0  0  0
 80128  1  0  0  0  0
 81129  1  0  0  0  0
M  END
> <PUBCHEM_COMPOUND_CID>
16134382

> <PUBCHEM_COMPOUND_CANONICALIZED>
1

> <PUBCHEM_CACTVS_COMPLEXITY>
2070

> <PUBCHEM_CACTVS_HBOND_ACCEPTOR>
12

> <PUBCHEM_CACTVS_HBOND_DONOR>
0

> <PUBCHEM_CACTVS_ROTATABLE_BOND>
24

> <PUBCHEM_CACTVS_SUBSKEYS>
AAADcfB/vAAAAAAAAAAAAAAAAAAAAAAAAAAwYMGDAAAAAAABVAAAHgAAAAAADgChmAIwCIAABACYBiDSCAAiAAAgAAAIiAEAAMgIpCKAMRCCMAAhgAAIqQcAgMAOAAAAAAAAAAAAAAAAAAAAAAAAAAAAAA==

> <PUBCHEM_IUPAC_OPENEYE_NAME>
[3-(2-cyano-3,3-diphenyl-prop-2-enoyl)oxy-2,2-bis[(2-cyano-3,3-diphenyl-prop-2-enoyl)oxymethyl]propyl] 2-cyano-3,3-diphenyl-prop-2-enoate

> <PUBCHEM_IUPAC_CAS_NAME>
2-cyano-3,3-diphenyl-2-propenoic acid [3-(2-cyano-1-oxo-3,3-diphenylprop-2-enoxy)-2,2-bis[(2-cyano-1-oxo-3,3-diphenylprop-2-enoxy)methyl]propyl] ester

> <PUBCHEM_IUPAC_NAME_MARKUP>
[3-(2-cyano-3,3-diphenylprop-2-enoyl)oxy-2,2-bis[(2-cyano-3,3-diphenylprop-2-enoyl)oxymethyl]propyl] 2-cyano-3,3-diphenylprop-2-enoate

> <PUBCHEM_IUPAC_NAME>
[3-(2-cyano-3,3-diphenylprop-2-enoyl)oxy-2,2-bis[(2-cyano-3,3-diphenylprop-2-enoyl)oxymethyl]propyl] 2-cyano-3,3-diphenylprop-2-enoate

> <PUBCHEM_IUPAC_SYSTEMATIC_NAME>
[3-(2-cyano-3,3-diphenyl-prop-2-enoyl)oxy-2,2-bis[(2-cyano-3,3-diphenyl-prop-2-enoyl)oxymethyl]propyl] 2-cyano-3,3-diphenyl-prop-2-enoate

> <PUBCHEM_IUPAC_TRADITIONAL_NAME>
2-cyano-3,3-diphenyl-acrylic acid [3-(2-cyano-3,3-diphenyl-acryloyl)oxy-2,2-bis[(2-cyano-3,3-diphenyl-acryloyl)oxymethyl]propyl] ester

> <PUBCHEM_IUPAC_INCHI>
InChI=1S/C69H48N4O8/c70-41-57(61(49-25-9-1-10-26-49)50-27-11-2-12-28-50)65(74)78-45-69(46-79-66(75)58(42-71)62(51-29-13-3-14-30-51)52-31-15-4-16-32-52,47-80-67(76)59(43-72)63(53-33-17-5-18-34-53)54-35-19-6-20-36-54)48-81-68(77)60(44-73)64(55-37-21-7-22-38-55)56-39-23-8-24-40-56/h1-40H,45-48H2

> <PUBCHEM_IUPAC_INCHIKEY>
CVSXFBFIOUYODT-UHFFFAOYSA-N

> <PUBCHEM_XLOGP3_AA>
15.5

> <PUBCHEM_EXACT_MASS>
1060.34721450

> <PUBCHEM_MOLECULAR_FORMULA>
C69H48N4O8

> <PUBCHEM_MOLECULAR_WEIGHT>
1061.1

> <PUBCHEM_SMILES>
C1=CC=C(C=C1)C(=C(C#N)C(=O)OCC(COC(=O)C(=C(C2=CC=CC=C2)C3=CC=CC=C3)C#N)(COC(=O)C(=C(C4=CC=CC=C4)C5=CC=CC=C5)C#N)COC(=O)C(=C(C6=CC=CC=C6)C7=CC=CC=C7)C#N)C8=CC=CC=C8

> <PUBCHEM_OPENEYE_CAN_SMILES>
C1=CC=C(C=C1)C(=C(C#N)C(=O)OCC(COC(=O)C(=C(C2=CC=CC=C2)C3=CC=CC=C3)C#N)(COC(=O)C(=C(C4=CC=CC=C4)C5=CC=CC=C5)C#N)COC(=O)C(=C(C6=CC=CC=C6)C7=CC=CC=C7)C#N)C8=CC=CC=C8

> <PUBCHEM_OPENEYE_ISO_SMILES>
C1=CC=C(C=C1)C(=C(C#N)C(=O)OCC(COC(=O)C(=C(C2=CC=CC=C2)C3=CC=CC=C3)C#N)(COC(=O)C(=C(C4=CC=CC=C4)C5=CC=CC=C5)C#N)COC(=O)C(=C(C6=CC=CC=C6)C7=CC=CC=C7)C#N)C8=CC=CC=C8

> <PUBCHEM_CACTVS_TPSA>
200

> <PUBCHEM_MONOISOTOPIC_WEIGHT>
1060.34721450

> <PUBCHEM_TOTAL_CHARGE>
0

> <PUBCHEM_HEAVY_ATOM_COUNT>
81

> <PUBCHEM_ATOM_DEF_STEREO_COUNT>
0

> <PUBCHEM_ATOM_UDEF_STEREO_COUNT>
0

> <PUBCHEM_BOND_DEF_STEREO_COUNT>
0

> <PUBCHEM_BOND_UDEF_STEREO_COUNT>
0

> <PUBCHEM_ISOTOPIC_ATOM_COUNT>
0

> <PUBCHEM_COMPONENT_COUNT>
1

> <PUBCHEM_CACTVS_TAUTO_COUNT>
-1

> <PUBCHEM_COORDINATE_TYPE>
1
5
255

> <PUBCHEM_BONDANNOTATIONS>
30  42  8
30  50  8
31  43  8
31  51  8
32  44  8
32  52  8
33  45  8
33  53  8
34  46  8
34  54  8
35  47  8
35  55  8
36  48  8
36  56  8
37  49  8
37  57  8
42  58  8
43  59  8
44  60  8
45  61  8
46  62  8
47  63  8
48  64  8
49  65  8
50  66  8
51  67  8
52  68  8
53  69  8
54  70  8
55  71  8
56  72  8
57  73  8
58  74  8
59  75  8
60  76  8
61  77  8
62  78  8
63  79  8
64  80  8
65  81  8
66  74  8
67  75  8
68  76  8
69  77  8
70  78  8
71  79  8
72  80  8
73  81  8

$$$$
