16211421
  -OEChem-04042513082D

 21 13  0     0  0  0  0  0  0999 V2000
    0.8660    7.2500    0.0000 Si  0  0  0  0  0  0  0  0  0  0  0  0
    4.5981    0.5000    0.0000 Si  0  0  0  0  0  0  0  0  0  0  0  0
    0.8660    1.2500    0.0000 Si  0  0  0  0  0  0  0  0  0  0  0  0
    0.8660    4.2500    0.0000 Si  0  0  0  0  0  0  0  0  0  0  0  0
    4.0981    3.0000    0.0000 Mg  0  0  0  0  0  0  0  0  0  0  0  0
    4.0981    5.5000    0.0000 Mg  0  0  0  0  0  0  0  0  0  0  0  0
    7.4641    4.0000    0.0000 Mg  0  0  0  0  0  0  0  0  0  0  0  0
    1.7320    7.7500    0.0000 O   0  0  0  0  0  0  0  0  0  0  0  0
    0.0000    6.7500    0.0000 O   0  0  0  0  0  0  0  0  0  0  0  0
    5.4641    1.0000    0.0000 O   0  0  0  0  0  0  0  0  0  0  0  0
    3.7320    0.0000    0.0000 O   0  0  0  0  0  0  0  0  0  0  0  0
    1.7320    1.7500    0.0000 O   0  0  0  0  0  0  0  0  0  0  0  0
    0.0000    0.7500    0.0000 O   0  0  0  0  0  0  0  0  0  0  0  0
    1.7320    4.7500    0.0000 O   0  0  0  0  0  0  0  0  0  0  0  0
    0.0000    3.7500    0.0000 O   0  0  0  0  0  0  0  0  0  0  0  0
    4.5981    8.0000    0.0000 O   0  0  0  0  0  0  0  0  0  0  0  0
    5.0981    3.0000    0.0000 O   0  0  0  0  0  0  0  0  0  0  0  0
    5.0981    5.5000    0.0000 O   0  0  0  0  0  0  0  0  0  0  0  0
    8.4641    4.0000    0.0000 O   0  0  0  0  0  0  0  0  0  0  0  0
    5.1350    8.3100    0.0000 H   0  0  0  0  0  0  0  0  0  0  0  0
    4.0611    8.3100    0.0000 H   0  0  0  0  0  0  0  0  0  0  0  0
  1  8  2  0  0  0  0
  1  9  2  0  0  0  0
  2 10  2  0  0  0  0
  2 11  2  0  0  0  0
  3 12  2  0  0  0  0
  3 13  2  0  0  0  0
  4 14  2  0  0  0  0
  4 15  2  0  0  0  0
  5 17  2  0  0  0  0
  6 18  2  0  0  0  0
  7 19  2  0  0  0  0
 16 20  1  0  0  0  0
 16 21  1  0  0  0  0
M  END
> <PUBCHEM_COMPOUND_CID>
16211421

> <PUBCHEM_COMPOUND_CANONICALIZED>
1

> <PUBCHEM_CACTVS_COMPLEXITY>
20.3

> <PUBCHEM_CACTVS_HBOND_ACCEPTOR>
12

> <PUBCHEM_CACTVS_HBOND_DONOR>
1

> <PUBCHEM_CACTVS_ROTATABLE_BOND>
0

> <PUBCHEM_CACTVS_SUBSKEYS>
AAADcQAAPAwAACAAAAAAAAAAAAAAAAAAAAAAAAAAAAAAAAAAAAAAAAAACkAAAAAAAAAAAAAAAAAAAAAAAAAAAAAAAAAAAAAAAAAAAAAAAAAAAAAAAAAAAAAAAAAAAAAAAAAAAAAAAAAAAAAAAAAAAAAAAA==

> <PUBCHEM_IUPAC_OPENEYE_NAME>
dioxosilane;oxomagnesium;hydrate

> <PUBCHEM_IUPAC_CAS_NAME>
dioxosilane;oxomagnesium;hydrate

> <PUBCHEM_IUPAC_NAME_MARKUP>
dioxosilane;oxomagnesium;hydrate

> <PUBCHEM_IUPAC_NAME>
dioxosilane;oxomagnesium;hydrate

> <PUBCHEM_IUPAC_SYSTEMATIC_NAME>
bis(oxidanylidene)silane;oxidanylidenemagnesium;hydrate

> <PUBCHEM_IUPAC_TRADITIONAL_NAME>
diketosilane;ketomagnesium;hydrate

> <PUBCHEM_IUPAC_INCHI>
InChI=1S/3Mg.4O2Si.H2O.3O/c;;;4*1-3-2;;;;/h;;;;;;;1H2;;;

> <PUBCHEM_IUPAC_INCHIKEY>
FPAFDBFIGPHWGO-UHFFFAOYSA-N

> <PUBCHEM_EXACT_MASS>
377.8174567

> <PUBCHEM_MOLECULAR_FORMULA>
H2Mg3O12Si4

> <PUBCHEM_MOLECULAR_WEIGHT>
379.27

> <PUBCHEM_SMILES>
O.O=[Mg].O=[Mg].O=[Mg].O=[Si]=O.O=[Si]=O.O=[Si]=O.O=[Si]=O

> <PUBCHEM_OPENEYE_CAN_SMILES>
O.O=[Mg].O=[Mg].O=[Mg].O=[Si]=O.O=[Si]=O.O=[Si]=O.O=[Si]=O

> <PUBCHEM_OPENEYE_ISO_SMILES>
O.O=[Mg].O=[Mg].O=[Mg].O=[Si]=O.O=[Si]=O.O=[Si]=O.O=[Si]=O

> <PUBCHEM_CACTVS_TPSA>
189

> <PUBCHEM_MONOISOTOPIC_WEIGHT>
377.8174567

> <PUBCHEM_TOTAL_CHARGE>
0

> <PUBCHEM_HEAVY_ATOM_COUNT>
19

> <PUBCHEM_ATOM_DEF_STEREO_COUNT>
0

> <PUBCHEM_ATOM_UDEF_STEREO_COUNT>
0

> <PUBCHEM_BOND_DEF_STEREO_COUNT>
0

> <PUBCHEM_BOND_UDEF_STEREO_COUNT>
0

> <PUBCHEM_ISOTOPIC_ATOM_COUNT>
0

> <PUBCHEM_COMPONENT_COUNT>
8

> <PUBCHEM_CACTVS_TAUTO_COUNT>
-1

> <PUBCHEM_COORDINATE_TYPE>
1
5
255

$$$$
