164362
  -OEChem-04042505422D

 67 67  0     1  0  0  0  0  0999 V2000
    2.5369   -4.7500    0.0000 O   0  0  0  0  0  0  0  0  0  0  0  0
    6.0010   -1.7500    0.0000 C   0  0  0  0  0  0  0  0  0  0  0  0
    5.1350   -2.2500    0.0000 C   0  0  0  0  0  0  0  0  0  0  0  0
    6.0010   -0.7500    0.0000 C   0  0  0  0  0  0  0  0  0  0  0  0
    5.1350   -3.2500    0.0000 C   0  0  0  0  0  0  0  0  0  0  0  0
    6.8671   -0.2500    0.0000 C   0  0  0  0  0  0  0  0  0  0  0  0
    4.2690   -3.7500    0.0000 C   0  0  3  0  0  0  0  0  0  0  0  0
    6.8671    0.7500    0.0000 C   0  0  0  0  0  0  0  0  0  0  0  0
    7.7331    1.2500    0.0000 C   0  0  0  0  0  0  0  0  0  0  0  0
    7.7331    2.2500    0.0000 C   0  0  0  0  0  0  0  0  0  0  0  0
    8.5991    2.7500    0.0000 C   0  0  0  0  0  0  0  0  0  0  0  0
    8.5991    3.7500    0.0000 C   0  0  0  0  0  0  0  0  0  0  0  0
    4.2690   -4.7500    0.0000 C   0  0  0  0  0  0  0  0  0  0  0  0
    9.4651    4.2500    0.0000 C   0  0  0  0  0  0  0  0  0  0  0  0
    3.4030   -3.2500    0.0000 C   0  0  0  0  0  0  0  0  0  0  0  0
    9.4651    5.2500    0.0000 C   0  0  0  0  0  0  0  0  0  0  0  0
    3.4030   -5.2500    0.0000 C   0  0  0  0  0  0  0  0  0  0  0  0
    5.1350   -5.2500    0.0000 C   0  0  0  0  0  0  0  0  0  0  0  0
   10.3312    5.7500    0.0000 C   0  0  0  0  0  0  0  0  0  0  0  0
    3.4030   -6.2500    0.0000 C   0  0  0  0  0  0  0  0  0  0  0  0
    5.1350   -6.2500    0.0000 C   0  0  0  0  0  0  0  0  0  0  0  0
    4.2690   -6.7500    0.0000 C   0  0  0  0  0  0  0  0  0  0  0  0
   10.3312    6.7500    0.0000 C   0  0  0  0  0  0  0  0  0  0  0  0
    2.5369   -6.7500    0.0000 C   0  0  0  0  0  0  0  0  0  0  0  0
    6.0010   -6.7500    0.0000 C   0  0  0  0  0  0  0  0  0  0  0  0
    4.9230   -1.6674    0.0000 H   0  0  0  0  0  0  0  0  0  0  0  0
    4.5244   -2.3577    0.0000 H   0  0  0  0  0  0  0  0  0  0  0  0
    6.2131   -2.3326    0.0000 H   0  0  0  0  0  0  0  0  0  0  0  0
    6.6116   -1.6423    0.0000 H   0  0  0  0  0  0  0  0  0  0  0  0
    5.7890   -0.1674    0.0000 H   0  0  0  0  0  0  0  0  0  0  0  0
    5.3905   -0.8577    0.0000 H   0  0  0  0  0  0  0  0  0  0  0  0
    5.3471   -3.8326    0.0000 H   0  0  0  0  0  0  0  0  0  0  0  0
    5.7456   -3.1423    0.0000 H   0  0  0  0  0  0  0  0  0  0  0  0
    7.0791   -0.8326    0.0000 H   0  0  0  0  0  0  0  0  0  0  0  0
    7.4776   -0.1423    0.0000 H   0  0  0  0  0  0  0  0  0  0  0  0
    4.2690   -3.1300    0.0000 H   0  0  0  0  0  0  0  0  0  0  0  0
    6.6550    1.3326    0.0000 H   0  0  0  0  0  0  0  0  0  0  0  0
    6.2565    0.6423    0.0000 H   0  0  0  0  0  0  0  0  0  0  0  0
    7.9451    0.6674    0.0000 H   0  0  0  0  0  0  0  0  0  0  0  0
    8.3437    1.3577    0.0000 H   0  0  0  0  0  0  0  0  0  0  0  0
    7.5210    2.8326    0.0000 H   0  0  0  0  0  0  0  0  0  0  0  0
    7.1225    2.1423    0.0000 H   0  0  0  0  0  0  0  0  0  0  0  0
    8.8112    2.1674    0.0000 H   0  0  0  0  0  0  0  0  0  0  0  0
    9.2097    2.8577    0.0000 H   0  0  0  0  0  0  0  0  0  0  0  0
    8.3871    4.3326    0.0000 H   0  0  0  0  0  0  0  0  0  0  0  0
    7.9885    3.6423    0.0000 H   0  0  0  0  0  0  0  0  0  0  0  0
    9.6772    3.6674    0.0000 H   0  0  0  0  0  0  0  0  0  0  0  0
   10.0757    4.3577    0.0000 H   0  0  0  0  0  0  0  0  0  0  0  0
    3.7130   -2.7131    0.0000 H   0  0  0  0  0  0  0  0  0  0  0  0
    2.8660   -2.9400    0.0000 H   0  0  0  0  0  0  0  0  0  0  0  0
    3.0930   -3.7869    0.0000 H   0  0  0  0  0  0  0  0  0  0  0  0
    9.2531    5.8326    0.0000 H   0  0  0  0  0  0  0  0  0  0  0  0
    8.8546    5.1423    0.0000 H   0  0  0  0  0  0  0  0  0  0  0  0
    5.6720   -4.9400    0.0000 H   0  0  0  0  0  0  0  0  0  0  0  0
   10.5432    5.1674    0.0000 H   0  0  0  0  0  0  0  0  0  0  0  0
   10.9417    5.8577    0.0000 H   0  0  0  0  0  0  0  0  0  0  0  0
    4.2690   -7.3700    0.0000 H   0  0  0  0  0  0  0  0  0  0  0  0
   10.9512    6.7500    0.0000 H   0  0  0  0  0  0  0  0  0  0  0  0
   10.3312    7.3700    0.0000 H   0  0  0  0  0  0  0  0  0  0  0  0
    9.7112    6.7500    0.0000 H   0  0  0  0  0  0  0  0  0  0  0  0
    2.2269   -6.2131    0.0000 H   0  0  0  0  0  0  0  0  0  0  0  0
    2.0000   -7.0600    0.0000 H   0  0  0  0  0  0  0  0  0  0  0  0
    2.8469   -7.2869    0.0000 H   0  0  0  0  0  0  0  0  0  0  0  0
    5.6910   -7.2869    0.0000 H   0  0  0  0  0  0  0  0  0  0  0  0
    6.5380   -7.0600    0.0000 H   0  0  0  0  0  0  0  0  0  0  0  0
    6.3110   -6.2131    0.0000 H   0  0  0  0  0  0  0  0  0  0  0  0
    2.0000   -5.0600    0.0000 H   0  0  0  0  0  0  0  0  0  0  0  0
  1 17  1  0  0  0  0
  1 67  1  0  0  0  0
  2  3  1  0  0  0  0
  2  4  1  0  0  0  0
  2 28  1  0  0  0  0
  2 29  1  0  0  0  0
  3  5  1  0  0  0  0
  3 26  1  0  0  0  0
  3 27  1  0  0  0  0
  4  6  1  0  0  0  0
  4 30  1  0  0  0  0
  4 31  1  0  0  0  0
  5  7  1  0  0  0  0
  5 32  1  0  0  0  0
  5 33  1  0  0  0  0
  6  8  1  0  0  0  0
  6 34  1  0  0  0  0
  6 35  1  0  0  0  0
  7 13  1  0  0  0  0
  7 15  1  0  0  0  0
  7 36  1  0  0  0  0
  8  9  1  0  0  0  0
  8 37  1  0  0  0  0
  8 38  1  0  0  0  0
  9 10  1  0  0  0  0
  9 39  1  0  0  0  0
  9 40  1  0  0  0  0
 10 11  1  0  0  0  0
 10 41  1  0  0  0  0
 10 42  1  0  0  0  0
 11 12  1  0  0  0  0
 11 43  1  0  0  0  0
 11 44  1  0  0  0  0
 12 14  1  0  0  0  0
 12 45  1  0  0  0  0
 12 46  1  0  0  0  0
 13 17  1  0  0  0  0
 13 18  2  0  0  0  0
 14 16  1  0  0  0  0
 14 47  1  0  0  0  0
 14 48  1  0  0  0  0
 15 49  1  0  0  0  0
 15 50  1  0  0  0  0
 15 51  1  0  0  0  0
 16 19  1  0  0  0  0
 16 52  1  0  0  0  0
 16 53  1  0  0  0  0
 17 20  2  0  0  0  0
 18 21  1  0  0  0  0
 18 54  1  0  0  0  0
 19 23  1  0  0  0  0
 19 55  1  0  0  0  0
 19 56  1  0  0  0  0
 20 22  1  0  0  0  0
 20 24  1  0  0  0  0
 21 22  2  0  0  0  0
 21 25  1  0  0  0  0
 22 57  1  0  0  0  0
 23 58  1  0  0  0  0
 23 59  1  0  0  0  0
 23 60  1  0  0  0  0
 24 61  1  0  0  0  0
 24 62  1  0  0  0  0
 24 63  1  0  0  0  0
 25 64  1  0  0  0  0
 25 65  1  0  0  0  0
 25 66  1  0  0  0  0
M  END
> <PUBCHEM_COMPOUND_CID>
164362

> <PUBCHEM_COMPOUND_CANONICALIZED>
1

> <PUBCHEM_CACTVS_COMPLEXITY>
300

> <PUBCHEM_CACTVS_HBOND_ACCEPTOR>
1

> <PUBCHEM_CACTVS_HBOND_DONOR>
1

> <PUBCHEM_CACTVS_ROTATABLE_BOND>
14

> <PUBCHEM_CACTVS_SUBSKEYS>
AAADcfB4IAAAAAAAAAAAAAAAAAAAAAAAAAAwAAAAAAAAAAABAAAAGgAACAAADQSAmAAyBoAAAgCAAiBCAAACAAAgIAAAiAAECIgIJiKCERKAcAAkwBEImAeAwOAOoAACAAAIAABAAAQAABAAAAAAAAAAAA==

> <PUBCHEM_IUPAC_OPENEYE_NAME>
2,4-dimethyl-6-(1-methylpentadecyl)phenol

> <PUBCHEM_IUPAC_CAS_NAME>
2-hexadecan-2-yl-4,6-dimethylphenol

> <PUBCHEM_IUPAC_NAME_MARKUP>
2-hexadecan-2-yl-4,6-dimethylphenol

> <PUBCHEM_IUPAC_NAME>
2-hexadecan-2-yl-4,6-dimethylphenol

> <PUBCHEM_IUPAC_SYSTEMATIC_NAME>
2-hexadecan-2-yl-4,6-dimethyl-phenol

> <PUBCHEM_IUPAC_TRADITIONAL_NAME>
2,4-dimethyl-6-(1-methylpentadecyl)phenol

> <PUBCHEM_IUPAC_INCHI>
InChI=1S/C24H42O/c1-5-6-7-8-9-10-11-12-13-14-15-16-17-21(3)23-19-20(2)18-22(4)24(23)25/h18-19,21,25H,5-17H2,1-4H3

> <PUBCHEM_IUPAC_INCHIKEY>
TVWGHFVGFWIHFN-UHFFFAOYSA-N

> <PUBCHEM_XLOGP3_AA>
10.5

> <PUBCHEM_EXACT_MASS>
346.323565959

> <PUBCHEM_MOLECULAR_FORMULA>
C24H42O

> <PUBCHEM_MOLECULAR_WEIGHT>
346.6

> <PUBCHEM_SMILES>
CCCCCCCCCCCCCCC(C)C1=CC(=CC(=C1O)C)C

> <PUBCHEM_OPENEYE_CAN_SMILES>
CCCCCCCCCCCCCCC(C)C1=CC(=CC(=C1O)C)C

> <PUBCHEM_OPENEYE_ISO_SMILES>
CCCCCCCCCCCCCCC(C)C1=CC(=CC(=C1O)C)C

> <PUBCHEM_CACTVS_TPSA>
20.2

> <PUBCHEM_MONOISOTOPIC_WEIGHT>
346.323565959

> <PUBCHEM_TOTAL_CHARGE>
0

> <PUBCHEM_HEAVY_ATOM_COUNT>
25

> <PUBCHEM_ATOM_DEF_STEREO_COUNT>
0

> <PUBCHEM_ATOM_UDEF_STEREO_COUNT>
1

> <PUBCHEM_BOND_DEF_STEREO_COUNT>
0

> <PUBCHEM_BOND_UDEF_STEREO_COUNT>
0

> <PUBCHEM_ISOTOPIC_ATOM_COUNT>
0

> <PUBCHEM_COMPONENT_COUNT>
1

> <PUBCHEM_CACTVS_TAUTO_COUNT>
-1

> <PUBCHEM_COORDINATE_TYPE>
1
5
255

> <PUBCHEM_BONDANNOTATIONS>
13  17  8
13  18  8
17  20  8
18  21  8
20  22  8
21  22  8
7  15  3

$$$$
