165363618
  -OEChem-04042512232D

 18 10  0     0  0  0  0  0  0999 V2000
    1.7071    3.7994    0.0000 Al  0  1  0  0  0  0  0  0  0  0  0  0
    1.7071    4.7994    0.0000 O   0  5  0  0  0  0  0  0  0  0  0  0
    0.7071    3.7994    0.0000 O   0  5  0  0  0  0  0  0  0  0  0  0
    0.0000    5.5065    0.0000 O   0  0  0  0  0  0  0  0  0  0  0  0
    4.9512    0.0000    0.0000 O   0  0  0  0  0  0  0  0  0  0  0  0
    4.9512    2.5000    0.0000 O   0  0  0  0  0  0  0  0  0  0  0  0
    4.9512    5.0000    0.0000 O   0  0  0  0  0  0  0  0  0  0  0  0
    2.4142    3.0923    0.0000 O   0  5  0  0  0  0  0  0  0  0  0  0
    0.7071    4.7994    0.0000 C   0  0  0  0  0  0  0  0  0  0  0  0
    4.7012    7.5000    0.0000 Li  0  3  0  0  0  0  0  0  0  0  0  0
    7.4881    3.7500    0.0000 Li  0  3  0  0  0  0  0  0  0  0  0  0
    5.4881    0.3100    0.0000 H   0  0  0  0  0  0  0  0  0  0  0  0
    4.4142    0.3100    0.0000 H   0  0  0  0  0  0  0  0  0  0  0  0
    5.4881    2.8100    0.0000 H   0  0  0  0  0  0  0  0  0  0  0  0
    4.4142    2.8100    0.0000 H   0  0  0  0  0  0  0  0  0  0  0  0
    5.4881    5.3100    0.0000 H   0  0  0  0  0  0  0  0  0  0  0  0
    4.4142    5.3100    0.0000 H   0  0  0  0  0  0  0  0  0  0  0  0
    2.2538    2.4935    0.0000 H   0  0  0  0  0  0  0  0  0  0  0  0
  2  9  1  0  0  0  0
  3  9  1  0  0  0  0
  4  9  2  0  0  0  0
  5 12  1  0  0  0  0
  5 13  1  0  0  0  0
  6 14  1  0  0  0  0
  6 15  1  0  0  0  0
  7 16  1  0  0  0  0
  7 17  1  0  0  0  0
  8 18  1  0  0  0  0
M  CHG  6   1   3   2  -1   3  -1   8  -1  10   1  11   1
M  END
> <PUBCHEM_COMPOUND_CID>
165363618

> <PUBCHEM_COMPOUND_CANONICALIZED>
1

> <PUBCHEM_CACTVS_COMPLEXITY>
18.8

> <PUBCHEM_CACTVS_HBOND_ACCEPTOR>
7

> <PUBCHEM_CACTVS_HBOND_DONOR>
4

> <PUBCHEM_CACTVS_ROTATABLE_BOND>
0

> <PUBCHEM_CACTVS_SUBSKEYS>
AAADcYwAOAAAABAAAAAAAAAAAAAAAAAAAAAAAAAAAAAAAAAAAAAAAgAACAAAAAAAAAAACAAAAAAIAAAACAAAAAAAAAAAAAAAAAAAAAAAAAAAAAAAAAAAAAAAAAAAAAAAAAAAAAAAAAAAAAAAAAAAAAAAAA==

> <PUBCHEM_IUPAC_OPENEYE_NAME>
aluminum;dilithium;carbonate;hydroxide;trihydrate

> <PUBCHEM_IUPAC_CAS_NAME>
aluminum;dilithium;carbonate;hydroxide;trihydrate

> <PUBCHEM_IUPAC_NAME_MARKUP>
aluminum;dilithium;carbonate;hydroxide;trihydrate

> <PUBCHEM_IUPAC_NAME>
aluminum;dilithium;carbonate;hydroxide;trihydrate

> <PUBCHEM_IUPAC_SYSTEMATIC_NAME>
aluminum;dilithium;carbonate;hydroxide;trihydrate

> <PUBCHEM_IUPAC_TRADITIONAL_NAME>
aluminum;dilithium;carbonate;hydroxide;trihydrate

> <PUBCHEM_IUPAC_INCHI>
InChI=1S/CH2O3.Al.2Li.4H2O/c2-1(3)4;;;;;;;/h(H2,2,3,4);;;;4*1H2/q;+3;2*+1;;;;/p-3

> <PUBCHEM_IUPAC_INCHIKEY>
XPRLGCIWHLBYJA-UHFFFAOYSA-K

> <PUBCHEM_EXACT_MASS>
172.0327228

> <PUBCHEM_MOLECULAR_FORMULA>
CH7AlLi2O7+2

> <PUBCHEM_MOLECULAR_WEIGHT>
172.0

> <PUBCHEM_SMILES>
[Li+].[Li+].C(=O)([O-])[O-].O.O.O.[OH-].[Al+3]

> <PUBCHEM_OPENEYE_CAN_SMILES>
[Li+].[Li+].C(=O)([O-])[O-].O.O.O.[OH-].[Al+3]

> <PUBCHEM_OPENEYE_ISO_SMILES>
[Li+].[Li+].C(=O)([O-])[O-].O.O.O.[OH-].[Al+3]

> <PUBCHEM_CACTVS_TPSA>
67.2

> <PUBCHEM_MONOISOTOPIC_WEIGHT>
172.0327228

> <PUBCHEM_TOTAL_CHARGE>
2

> <PUBCHEM_HEAVY_ATOM_COUNT>
11

> <PUBCHEM_ATOM_DEF_STEREO_COUNT>
0

> <PUBCHEM_ATOM_UDEF_STEREO_COUNT>
0

> <PUBCHEM_BOND_DEF_STEREO_COUNT>
0

> <PUBCHEM_BOND_UDEF_STEREO_COUNT>
0

> <PUBCHEM_ISOTOPIC_ATOM_COUNT>
0

> <PUBCHEM_COMPONENT_COUNT>
8

> <PUBCHEM_CACTVS_TAUTO_COUNT>
-1

> <PUBCHEM_COORDINATE_TYPE>
1
5
255

$$$$
