165359999
  -OEChem-04042512462D

 99102  0     0  0  0  0  0  0999 V2000
    4.8660    1.5000    0.0000 O   0  0  0  0  0  0  0  0  0  0  0  0
    3.1340    1.5000    0.0000 O   0  0  0  0  0  0  0  0  0  0  0  0
    4.8660   -1.5000    0.0000 O   0  0  0  0  0  0  0  0  0  0  0  0
    3.1340   -1.5000    0.0000 O   0  0  0  0  0  0  0  0  0  0  0  0
    4.5000    4.5981    0.0000 O   0  0  0  0  0  0  0  0  0  0  0  0
    3.5000   -4.5981    0.0000 O   0  0  0  0  0  0  0  0  0  0  0  0
    6.0000    5.4641    0.0000 O   0  0  0  0  0  0  0  0  0  0  0  0
    2.0000   -5.4641    0.0000 O   0  0  0  0  0  0  0  0  0  0  0  0
    5.0000   10.6603    0.0000 O   0  0  0  0  0  0  0  0  0  0  0  0
    3.0000  -10.6603    0.0000 O   0  0  0  0  0  0  0  0  0  0  0  0
    3.0000   10.6603    0.0000 O   0  0  0  0  0  0  0  0  0  0  0  0
    5.0000  -10.6603    0.0000 O   0  0  0  0  0  0  0  0  0  0  0  0
    2.5000    6.3301    0.0000 N   0  0  0  0  0  0  0  0  0  0  0  0
    5.5000   -6.3301    0.0000 N   0  0  0  0  0  0  0  0  0  0  0  0
    4.0000   -0.0000    0.0000 C   0  0  0  0  0  0  0  0  0  0  0  0
    4.8660    0.5000    0.0000 C   0  0  0  0  0  0  0  0  0  0  0  0
    3.1340    0.5000    0.0000 C   0  0  0  0  0  0  0  0  0  0  0  0
    4.8660   -0.5000    0.0000 C   0  0  0  0  0  0  0  0  0  0  0  0
    3.1340   -0.5000    0.0000 C   0  0  0  0  0  0  0  0  0  0  0  0
    4.0000    2.0000    0.0000 C   0  0  0  0  0  0  0  0  0  0  0  0
    4.0000   -2.0000    0.0000 C   0  0  0  0  0  0  0  0  0  0  0  0
    4.5000    2.8660    0.0000 C   0  0  0  0  0  0  0  0  0  0  0  0
    3.5000   -2.8660    0.0000 C   0  0  0  0  0  0  0  0  0  0  0  0
    5.0000    3.7320    0.0000 C   0  0  0  0  0  0  0  0  0  0  0  0
    3.0000   -3.7320    0.0000 C   0  0  0  0  0  0  0  0  0  0  0  0
    5.3660    2.3660    0.0000 C   0  0  0  0  0  0  0  0  0  0  0  0
    3.6340    3.3660    0.0000 C   0  0  0  0  0  0  0  0  0  0  0  0
    2.6340   -2.3660    0.0000 C   0  0  0  0  0  0  0  0  0  0  0  0
    4.3660   -3.3660    0.0000 C   0  0  0  0  0  0  0  0  0  0  0  0
    5.0000    5.4641    0.0000 C   0  0  0  0  0  0  0  0  0  0  0  0
    3.0000   -5.4641    0.0000 C   0  0  0  0  0  0  0  0  0  0  0  0
    4.5000    6.3301    0.0000 C   0  0  0  0  0  0  0  0  0  0  0  0
    3.5000   -6.3301    0.0000 C   0  0  0  0  0  0  0  0  0  0  0  0
    5.0000    7.1962    0.0000 C   0  0  0  0  0  0  0  0  0  0  0  0
    3.0000   -7.1962    0.0000 C   0  0  0  0  0  0  0  0  0  0  0  0
    3.5000    6.3301    0.0000 C   0  0  0  0  0  0  0  0  0  0  0  0
    4.5000   -6.3301    0.0000 C   0  0  0  0  0  0  0  0  0  0  0  0
    4.5000    8.0622    0.0000 C   0  0  0  0  0  0  0  0  0  0  0  0
    3.5000   -8.0622    0.0000 C   0  0  0  0  0  0  0  0  0  0  0  0
    5.0000    8.9282    0.0000 C   0  0  0  0  0  0  0  0  0  0  0  0
    3.0000   -8.9282    0.0000 C   0  0  0  0  0  0  0  0  0  0  0  0
    3.5000    8.0622    0.0000 C   0  0  0  0  0  0  0  0  0  0  0  0
    4.5000   -8.0622    0.0000 C   0  0  0  0  0  0  0  0  0  0  0  0
    4.5000    9.7942    0.0000 C   0  0  0  0  0  0  0  0  0  0  0  0
    3.5000   -9.7942    0.0000 C   0  0  0  0  0  0  0  0  0  0  0  0
    3.0000    8.9282    0.0000 C   0  0  0  0  0  0  0  0  0  0  0  0
    5.0000   -8.9282    0.0000 C   0  0  0  0  0  0  0  0  0  0  0  0
    3.5000    9.7942    0.0000 C   0  0  0  0  0  0  0  0  0  0  0  0
    4.5000   -9.7942    0.0000 C   0  0  0  0  0  0  0  0  0  0  0  0
    6.0000   10.6603    0.0000 C   0  0  0  0  0  0  0  0  0  0  0  0
    2.0000  -10.6603    0.0000 C   0  0  0  0  0  0  0  0  0  0  0  0
    2.0000   10.6603    0.0000 C   0  0  0  0  0  0  0  0  0  0  0  0
    6.0000  -10.6603    0.0000 C   0  0  0  0  0  0  0  0  0  0  0  0
    5.0781   -0.0826    0.0000 H   0  0  0  0  0  0  0  0  0  0  0  0
    5.4766    0.6077    0.0000 H   0  0  0  0  0  0  0  0  0  0  0  0
    2.5234    0.6077    0.0000 H   0  0  0  0  0  0  0  0  0  0  0  0
    2.9219   -0.0826    0.0000 H   0  0  0  0  0  0  0  0  0  0  0  0
    5.4766   -0.6077    0.0000 H   0  0  0  0  0  0  0  0  0  0  0  0
    5.0781    0.0826    0.0000 H   0  0  0  0  0  0  0  0  0  0  0  0
    2.9219    0.0826    0.0000 H   0  0  0  0  0  0  0  0  0  0  0  0
    2.5234   -0.6077    0.0000 H   0  0  0  0  0  0  0  0  0  0  0  0
    3.6900    2.5369    0.0000 H   0  0  0  0  0  0  0  0  0  0  0  0
    4.3100   -2.5369    0.0000 H   0  0  0  0  0  0  0  0  0  0  0  0
    5.4750    3.3335    0.0000 H   0  0  0  0  0  0  0  0  0  0  0  0
    5.4750    4.1306    0.0000 H   0  0  0  0  0  0  0  0  0  0  0  0
    2.5250   -3.3335    0.0000 H   0  0  0  0  0  0  0  0  0  0  0  0
    2.5250   -4.1306    0.0000 H   0  0  0  0  0  0  0  0  0  0  0  0
    5.0560    1.8291    0.0000 H   0  0  0  0  0  0  0  0  0  0  0  0
    5.9030    2.0560    0.0000 H   0  0  0  0  0  0  0  0  0  0  0  0
    5.6760    2.9030    0.0000 H   0  0  0  0  0  0  0  0  0  0  0  0
    3.9440    3.9030    0.0000 H   0  0  0  0  0  0  0  0  0  0  0  0
    3.0970    3.6760    0.0000 H   0  0  0  0  0  0  0  0  0  0  0  0
    3.3240    2.8291    0.0000 H   0  0  0  0  0  0  0  0  0  0  0  0
    2.9440   -1.8291    0.0000 H   0  0  0  0  0  0  0  0  0  0  0  0
    2.0970   -2.0560    0.0000 H   0  0  0  0  0  0  0  0  0  0  0  0
    2.3240   -2.9030    0.0000 H   0  0  0  0  0  0  0  0  0  0  0  0
    4.0560   -3.9030    0.0000 H   0  0  0  0  0  0  0  0  0  0  0  0
    4.9030   -3.6760    0.0000 H   0  0  0  0  0  0  0  0  0  0  0  0
    4.6760   -2.8291    0.0000 H   0  0  0  0  0  0  0  0  0  0  0  0
    5.6200    7.1962    0.0000 H   0  0  0  0  0  0  0  0  0  0  0  0
    2.3800   -7.1962    0.0000 H   0  0  0  0  0  0  0  0  0  0  0  0
    5.6200    8.9282    0.0000 H   0  0  0  0  0  0  0  0  0  0  0  0
    2.3800   -8.9282    0.0000 H   0  0  0  0  0  0  0  0  0  0  0  0
    3.1900    7.5252    0.0000 H   0  0  0  0  0  0  0  0  0  0  0  0
    4.8100   -7.5252    0.0000 H   0  0  0  0  0  0  0  0  0  0  0  0
    2.3800    8.9282    0.0000 H   0  0  0  0  0  0  0  0  0  0  0  0
    5.6200   -8.9282    0.0000 H   0  0  0  0  0  0  0  0  0  0  0  0
    6.0000   10.0403    0.0000 H   0  0  0  0  0  0  0  0  0  0  0  0
    6.6200   10.6603    0.0000 H   0  0  0  0  0  0  0  0  0  0  0  0
    6.0000   11.2803    0.0000 H   0  0  0  0  0  0  0  0  0  0  0  0
    2.0000  -10.0403    0.0000 H   0  0  0  0  0  0  0  0  0  0  0  0
    1.3800  -10.6603    0.0000 H   0  0  0  0  0  0  0  0  0  0  0  0
    2.0000  -11.2803    0.0000 H   0  0  0  0  0  0  0  0  0  0  0  0
    2.0000   11.2803    0.0000 H   0  0  0  0  0  0  0  0  0  0  0  0
    1.3800   10.6603    0.0000 H   0  0  0  0  0  0  0  0  0  0  0  0
    2.0000   10.0403    0.0000 H   0  0  0  0  0  0  0  0  0  0  0  0
    6.0000  -11.2803    0.0000 H   0  0  0  0  0  0  0  0  0  0  0  0
    6.6200  -10.6603    0.0000 H   0  0  0  0  0  0  0  0  0  0  0  0
    6.0000  -10.0403    0.0000 H   0  0  0  0  0  0  0  0  0  0  0  0
  1 16  1  0  0  0  0
  1 20  1  0  0  0  0
  2 17  1  0  0  0  0
  2 20  1  0  0  0  0
  3 18  1  0  0  0  0
  3 21  1  0  0  0  0
  4 19  1  0  0  0  0
  4 21  1  0  0  0  0
  5 24  1  0  0  0  0
  5 30  1  0  0  0  0
  6 25  1  0  0  0  0
  6 31  1  0  0  0  0
  7 30  2  0  0  0  0
  8 31  2  0  0  0  0
  9 44  1  0  0  0  0
  9 50  1  0  0  0  0
 10 45  1  0  0  0  0
 10 51  1  0  0  0  0
 11 48  1  0  0  0  0
 11 52  1  0  0  0  0
 12 49  1  0  0  0  0
 12 53  1  0  0  0  0
 13 36  3  0  0  0  0
 14 37  3  0  0  0  0
 15 16  1  0  0  0  0
 15 17  1  0  0  0  0
 15 18  1  0  0  0  0
 15 19  1  0  0  0  0
 16 54  1  0  0  0  0
 16 55  1  0  0  0  0
 17 56  1  0  0  0  0
 17 57  1  0  0  0  0
 18 58  1  0  0  0  0
 18 59  1  0  0  0  0
 19 60  1  0  0  0  0
 19 61  1  0  0  0  0
 20 22  1  0  0  0  0
 20 62  1  0  0  0  0
 21 23  1  0  0  0  0
 21 63  1  0  0  0  0
 22 24  1  0  0  0  0
 22 26  1  0  0  0  0
 22 27  1  0  0  0  0
 23 25  1  0  0  0  0
 23 28  1  0  0  0  0
 23 29  1  0  0  0  0
 24 64  1  0  0  0  0
 24 65  1  0  0  0  0
 25 66  1  0  0  0  0
 25 67  1  0  0  0  0
 26 68  1  0  0  0  0
 26 69  1  0  0  0  0
 26 70  1  0  0  0  0
 27 71  1  0  0  0  0
 27 72  1  0  0  0  0
 27 73  1  0  0  0  0
 28 74  1  0  0  0  0
 28 75  1  0  0  0  0
 28 76  1  0  0  0  0
 29 77  1  0  0  0  0
 29 78  1  0  0  0  0
 29 79  1  0  0  0  0
 30 32  1  0  0  0  0
 31 33  1  0  0  0  0
 32 34  2  0  0  0  0
 32 36  1  0  0  0  0
 33 35  2  0  0  0  0
 33 37  1  0  0  0  0
 34 38  1  0  0  0  0
 34 80  1  0  0  0  0
 35 39  1  0  0  0  0
 35 81  1  0  0  0  0
 38 40  2  0  0  0  0
 38 42  1  0  0  0  0
 39 41  2  0  0  0  0
 39 43  1  0  0  0  0
 40 44  1  0  0  0  0
 40 82  1  0  0  0  0
 41 45  1  0  0  0  0
 41 83  1  0  0  0  0
 42 46  2  0  0  0  0
 42 84  1  0  0  0  0
 43 47  2  0  0  0  0
 43 85  1  0  0  0  0
 44 48  2  0  0  0  0
 45 49  2  0  0  0  0
 46 48  1  0  0  0  0
 46 86  1  0  0  0  0
 47 49  1  0  0  0  0
 47 87  1  0  0  0  0
 50 88  1  0  0  0  0
 50 89  1  0  0  0  0
 50 90  1  0  0  0  0
 51 91  1  0  0  0  0
 51 92  1  0  0  0  0
 51 93  1  0  0  0  0
 52 94  1  0  0  0  0
 52 95  1  0  0  0  0
 52 96  1  0  0  0  0
 53 97  1  0  0  0  0
 53 98  1  0  0  0  0
 53 99  1  0  0  0  0
M  END
> <PUBCHEM_COMPOUND_CID>
165359999

> <PUBCHEM_COMPOUND_CANONICALIZED>
1

> <PUBCHEM_CACTVS_COMPLEXITY>
1300

> <PUBCHEM_CACTVS_HBOND_ACCEPTOR>
14

> <PUBCHEM_CACTVS_HBOND_DONOR>
0

> <PUBCHEM_CACTVS_ROTATABLE_BOND>
16

> <PUBCHEM_CACTVS_SUBSKEYS>
AAADcfB/PAAAAAAAAAAAAAAAAAAAAAAAAAA0aIEAAAAAAAABQAAAHgAAAAAADgSxmAMyDoAABACYBiDSCAAiCAAgIAAIiAEGiMgdpiKEMRqiMCIlwBEOqYeAwBAOIAABAAAAQABAAAIAAACAAAAAAAAAAA==

> <PUBCHEM_IUPAC_OPENEYE_NAME>
[2-[3-[2-[(E)-2-cyano-3-(3,4-dimethoxyphenyl)prop-2-enoyl]oxy-1,1-dimethyl-ethyl]-2,4,8,10-tetraoxaspiro[5.5]undecan-9-yl]-2-methyl-propyl] (E)-2-cyano-3-(3,4-dimethoxyphenyl)prop-2-enoate

> <PUBCHEM_IUPAC_CAS_NAME>
(E)-2-cyano-3-(3,4-dimethoxyphenyl)-2-propenoic acid [2-[3-[1-[(E)-2-cyano-3-(3,4-dimethoxyphenyl)-1-oxoprop-2-enoxy]-2-methylpropan-2-yl]-2,4,8,10-tetraoxaspiro[5.5]undecan-9-yl]-2-methylpropyl] ester

> <PUBCHEM_IUPAC_NAME_MARKUP>
[2-[3-[1-[(<I>E</I>)-2-cyano-3-(3,4-dimethoxyphenyl)prop-2-enoyl]oxy-2-methylpropan-2-yl]-2,4,8,10-tetraoxaspiro[5.5]undecan-9-yl]-2-methylpropyl] (<I>E</I>)-2-cyano-3-(3,4-dimethoxyphenyl)prop-2-enoate

> <PUBCHEM_IUPAC_NAME>
[2-[3-[1-[(E)-2-cyano-3-(3,4-dimethoxyphenyl)prop-2-enoyl]oxy-2-methylpropan-2-yl]-2,4,8,10-tetraoxaspiro[5.5]undecan-9-yl]-2-methylpropyl] (E)-2-cyano-3-(3,4-dimethoxyphenyl)prop-2-enoate

> <PUBCHEM_IUPAC_SYSTEMATIC_NAME>
[2-[3-[1-[(E)-2-cyano-3-(3,4-dimethoxyphenyl)prop-2-enoyl]oxy-2-methyl-propan-2-yl]-2,4,8,10-tetraoxaspiro[5.5]undecan-9-yl]-2-methyl-propyl] (E)-2-cyano-3-(3,4-dimethoxyphenyl)prop-2-enoate

> <PUBCHEM_IUPAC_TRADITIONAL_NAME>
(E)-2-cyano-3-(3,4-dimethoxyphenyl)acrylic acid [2-[3-[2-[(E)-2-cyano-3-(3,4-dimethoxyphenyl)acryloyl]oxy-1,1-dimethyl-ethyl]-2,4,8,10-tetraoxaspiro[5.5]undecan-9-yl]-2-methyl-propyl] ester

> <PUBCHEM_IUPAC_INCHI>
InChI=1S/C39H46N2O12/c1-37(2,19-48-33(42)27(17-40)13-25-9-11-29(44-5)31(15-25)46-7)35-50-21-39(22-51-35)23-52-36(53-24-39)38(3,4)20-49-34(43)28(18-41)14-26-10-12-30(45-6)32(16-26)47-8/h9-16,35-36H,19-24H2,1-8H3/b27-13+,28-14+

> <PUBCHEM_IUPAC_INCHIKEY>
PLJNMVSXXDHWOT-OCHFTUDZSA-N

> <PUBCHEM_XLOGP3_AA>
5.7

> <PUBCHEM_EXACT_MASS>
734.30507491

> <PUBCHEM_MOLECULAR_FORMULA>
C39H46N2O12

> <PUBCHEM_MOLECULAR_WEIGHT>
734.8

> <PUBCHEM_SMILES>
CC(C1OCC2(CO1)COC(OC2)C(COC(=O)/C(=C/C3=CC(=C(C=C3)OC)OC)/C#N)(C)C)(COC(=O)/C(=C/C4=CC(=C(C=C4)OC)OC)/C#N)C

> <PUBCHEM_OPENEYE_CAN_SMILES>
CC(C)(COC(=O)C(=CC1=CC(=C(C=C1)OC)OC)C#N)C2OCC3(CO2)COC(OC3)C(C)(C)COC(=O)C(=CC4=CC(=C(C=C4)OC)OC)C#N

> <PUBCHEM_OPENEYE_ISO_SMILES>
CC(C1OCC2(CO1)COC(OC2)C(COC(=O)/C(=C/C3=CC(=C(C=C3)OC)OC)/C#N)(C)C)(COC(=O)/C(=C/C4=CC(=C(C=C4)OC)OC)/C#N)C

> <PUBCHEM_CACTVS_TPSA>
174

> <PUBCHEM_MONOISOTOPIC_WEIGHT>
734.30507491

> <PUBCHEM_TOTAL_CHARGE>
0

> <PUBCHEM_HEAVY_ATOM_COUNT>
53

> <PUBCHEM_ATOM_DEF_STEREO_COUNT>
0

> <PUBCHEM_ATOM_UDEF_STEREO_COUNT>
0

> <PUBCHEM_BOND_DEF_STEREO_COUNT>
2

> <PUBCHEM_BOND_UDEF_STEREO_COUNT>
0

> <PUBCHEM_ISOTOPIC_ATOM_COUNT>
0

> <PUBCHEM_COMPONENT_COUNT>
1

> <PUBCHEM_CACTVS_TAUTO_COUNT>
-1

> <PUBCHEM_COORDINATE_TYPE>
1
5
255

> <PUBCHEM_BONDANNOTATIONS>
38  40  8
38  42  8
39  41  8
39  43  8
40  44  8
41  45  8
42  46  8
43  47  8
44  48  8
45  49  8
46  48  8
47  49  8

$$$$
