165360057
  -OEChem-04042512442D

 10  6  0     0  0  0  0  0  0999 V2000
    4.5981    0.2500    0.0000 Si  0  0  0  0  0  0  0  0  0  0  0  0
    6.3301    0.2500    0.0000 Si  0  0  0  0  0  0  0  0  0  0  0  0
    2.8660    0.2500    0.0000 Mg  0  2  0  0  0  0  0  0  0  0  0  0
    8.0622    0.2500    0.0000 Na  0  3  0  0  0  0  0  0  0  0  0  0
    2.0000    0.7500    0.0000 F   0  5  0  0  0  0  0  0  0  0  0  0
    5.4641    0.7500    0.0000 O   0  0  0  0  0  0  0  0  0  0  0  0
    3.7320    0.7500    0.0000 O   0  5  0  0  0  0  0  0  0  0  0  0
    7.1962    0.7500    0.0000 O   0  5  0  0  0  0  0  0  0  0  0  0
    4.5981   -0.7500    0.0000 O   0  0  0  0  0  0  0  0  0  0  0  0
    6.3301   -0.7500    0.0000 O   0  0  0  0  0  0  0  0  0  0  0  0
  1  6  1  0  0  0  0
  1  7  1  0  0  0  0
  1  9  2  0  0  0  0
  2  6  1  0  0  0  0
  2  8  1  0  0  0  0
  2 10  2  0  0  0  0
M  CHG  5   3   2   4   1   5  -1   7  -1   8  -1
M  END
> <PUBCHEM_COMPOUND_CID>
165360057

> <PUBCHEM_COMPOUND_CANONICALIZED>
1

> <PUBCHEM_CACTVS_COMPLEXITY>
71.2

> <PUBCHEM_CACTVS_HBOND_ACCEPTOR>
6

> <PUBCHEM_CACTVS_HBOND_DONOR>
0

> <PUBCHEM_CACTVS_ROTATABLE_BOND>
0

> <PUBCHEM_CACTVS_SUBSKEYS>
AAADcQAAOSwAACAAAAAAAAAAAAAAAAAAAAAAAAAAAAAAAAAAAAAAAAAAAEAAAAAAAAAAAAAAAAAAAAAAAAAAAAAAAAAAAAAAAAAAAAAAAAAAAAAAAAAAAAAAAAAAAAAAAAAAAAAAAAAAAAAAAAAAAAAAAA==

> <PUBCHEM_IUPAC_OPENEYE_NAME>
magnesium;sodium;oxido-[oxido(oxo)silyl]oxy-oxo-silane;fluoride

> <PUBCHEM_IUPAC_CAS_NAME>
magnesium;sodium;oxido-[oxido(oxo)silyl]oxy-oxosilane;fluoride

> <PUBCHEM_IUPAC_NAME_MARKUP>
magnesium;sodium;oxido-[oxido(oxo)silyl]oxy-oxosilane;fluoride

> <PUBCHEM_IUPAC_NAME>
magnesium;sodium;oxido-[oxido(oxo)silyl]oxy-oxosilane;fluoride

> <PUBCHEM_IUPAC_SYSTEMATIC_NAME>
magnesium;sodium;oxidanidyl-[oxidanidyl(oxidanylidene)silyl]oxy-oxidanylidene-silane;fluoride

> <PUBCHEM_IUPAC_TRADITIONAL_NAME>
magnesium;sodium;keto-[keto(oxido)silyl]oxy-oxido-silane;fluoride

> <PUBCHEM_IUPAC_INCHI>
InChI=1S/FH.Mg.Na.O5Si2/c;;;1-6(2)5-7(3)4/h1H;;;/q;+2;+1;-2/p-1

> <PUBCHEM_IUPAC_INCHIKEY>
QHGHQCANXAIYHN-UHFFFAOYSA-M

> <PUBCHEM_EXACT_MASS>
201.9016403

> <PUBCHEM_MOLECULAR_FORMULA>
FMgNaO5Si2

> <PUBCHEM_MOLECULAR_WEIGHT>
202.46

> <PUBCHEM_SMILES>
[O-][Si](=O)O[Si](=O)[O-].[F-].[Na+].[Mg+2]

> <PUBCHEM_OPENEYE_CAN_SMILES>
[O-][Si](=O)O[Si](=O)[O-].[F-].[Na+].[Mg+2]

> <PUBCHEM_OPENEYE_ISO_SMILES>
[O-][Si](=O)O[Si](=O)[O-].[F-].[Na+].[Mg+2]

> <PUBCHEM_CACTVS_TPSA>
89.5

> <PUBCHEM_MONOISOTOPIC_WEIGHT>
201.9016403

> <PUBCHEM_TOTAL_CHARGE>
0

> <PUBCHEM_HEAVY_ATOM_COUNT>
10

> <PUBCHEM_ATOM_DEF_STEREO_COUNT>
0

> <PUBCHEM_ATOM_UDEF_STEREO_COUNT>
0

> <PUBCHEM_BOND_DEF_STEREO_COUNT>
0

> <PUBCHEM_BOND_UDEF_STEREO_COUNT>
0

> <PUBCHEM_ISOTOPIC_ATOM_COUNT>
0

> <PUBCHEM_COMPONENT_COUNT>
4

> <PUBCHEM_CACTVS_TAUTO_COUNT>
-1

> <PUBCHEM_COORDINATE_TYPE>
1
5
255

$$$$
