16683946
  -OEChem-04042505492D

125124  0     0  0  0  0  0  0999 V2000
   13.2583    0.0000    0.0000 Sn  0  0  0  0  0  0  0  0  0  0  0  0
   14.1244    0.5000    0.0000 O   0  0  0  0  0  0  0  0  0  0  0  0
   12.3923   -0.5000    0.0000 O   0  0  0  0  0  0  0  0  0  0  0  0
   14.9904   -1.0000    0.0000 O   0  0  0  0  0  0  0  0  0  0  0  0
   11.5263    1.0000    0.0000 O   0  0  0  0  0  0  0  0  0  0  0  0
   12.7583    0.8660    0.0000 C   0  0  0  0  0  0  0  0  0  0  0  0
   13.7583   -0.8660    0.0000 C   0  0  0  0  0  0  0  0  0  0  0  0
   13.2583    1.7320    0.0000 C   0  0  0  0  0  0  0  0  0  0  0  0
   13.2583   -1.7320    0.0000 C   0  0  0  0  0  0  0  0  0  0  0  0
   12.7583    2.5981    0.0000 C   0  0  0  0  0  0  0  0  0  0  0  0
   13.7583   -2.5981    0.0000 C   0  0  0  0  0  0  0  0  0  0  0  0
   13.2583    3.4641    0.0000 C   0  0  0  0  0  0  0  0  0  0  0  0
   13.2583   -3.4641    0.0000 C   0  0  0  0  0  0  0  0  0  0  0  0
   12.7583    4.3301    0.0000 C   0  0  0  0  0  0  0  0  0  0  0  0
   13.7583   -4.3301    0.0000 C   0  0  0  0  0  0  0  0  0  0  0  0
   14.9904    0.0000    0.0000 C   0  0  0  0  0  0  0  0  0  0  0  0
   11.5263   -0.0000    0.0000 C   0  0  0  0  0  0  0  0  0  0  0  0
   15.8564    0.5000    0.0000 C   0  0  0  0  0  0  0  0  0  0  0  0
   10.6603   -0.5000    0.0000 C   0  0  0  0  0  0  0  0  0  0  0  0
   13.2583    5.1962    0.0000 C   0  0  0  0  0  0  0  0  0  0  0  0
   13.2583   -5.1962    0.0000 C   0  0  0  0  0  0  0  0  0  0  0  0
   16.7224   -0.0000    0.0000 C   0  0  0  0  0  0  0  0  0  0  0  0
    9.7942   -0.0000    0.0000 C   0  0  0  0  0  0  0  0  0  0  0  0
   17.5885    0.5000    0.0000 C   0  0  0  0  0  0  0  0  0  0  0  0
    8.9282   -0.5000    0.0000 C   0  0  0  0  0  0  0  0  0  0  0  0
   18.4545   -0.0000    0.0000 C   0  0  0  0  0  0  0  0  0  0  0  0
    8.0622   -0.0000    0.0000 C   0  0  0  0  0  0  0  0  0  0  0  0
   19.3205    0.5000    0.0000 C   0  0  0  0  0  0  0  0  0  0  0  0
    7.1962   -0.5000    0.0000 C   0  0  0  0  0  0  0  0  0  0  0  0
   20.1865   -0.0000    0.0000 C   0  0  0  0  0  0  0  0  0  0  0  0
    6.3301   -0.0000    0.0000 C   0  0  0  0  0  0  0  0  0  0  0  0
   12.7583    6.0622    0.0000 C   0  0  0  0  0  0  0  0  0  0  0  0
   13.7583   -6.0622    0.0000 C   0  0  0  0  0  0  0  0  0  0  0  0
   21.0526    0.5000    0.0000 C   0  0  0  0  0  0  0  0  0  0  0  0
    5.4641   -0.5000    0.0000 C   0  0  0  0  0  0  0  0  0  0  0  0
   21.9186   -0.0000    0.0000 C   0  0  0  0  0  0  0  0  0  0  0  0
    4.5981   -0.0000    0.0000 C   0  0  0  0  0  0  0  0  0  0  0  0
   22.7846    0.5000    0.0000 C   0  0  0  0  0  0  0  0  0  0  0  0
    3.7320   -0.5000    0.0000 C   0  0  0  0  0  0  0  0  0  0  0  0
   13.2583    6.9282    0.0000 C   0  0  0  0  0  0  0  0  0  0  0  0
   13.2583   -6.9282    0.0000 C   0  0  0  0  0  0  0  0  0  0  0  0
   23.6506   -0.0000    0.0000 C   0  0  0  0  0  0  0  0  0  0  0  0
    2.8660   -0.0000    0.0000 C   0  0  0  0  0  0  0  0  0  0  0  0
   24.5167    0.5000    0.0000 C   0  0  0  0  0  0  0  0  0  0  0  0
    2.0000   -0.5000    0.0000 C   0  0  0  0  0  0  0  0  0  0  0  0
   12.2834    1.2646    0.0000 H   0  0  0  0  0  0  0  0  0  0  0  0
   12.2834    0.4675    0.0000 H   0  0  0  0  0  0  0  0  0  0  0  0
   14.2333   -1.2646    0.0000 H   0  0  0  0  0  0  0  0  0  0  0  0
   14.2333   -0.4675    0.0000 H   0  0  0  0  0  0  0  0  0  0  0  0
   13.7333    1.3335    0.0000 H   0  0  0  0  0  0  0  0  0  0  0  0
   13.7333    2.1306    0.0000 H   0  0  0  0  0  0  0  0  0  0  0  0
   12.7834   -1.3335    0.0000 H   0  0  0  0  0  0  0  0  0  0  0  0
   12.7834   -2.1306    0.0000 H   0  0  0  0  0  0  0  0  0  0  0  0
   12.2834    2.9966    0.0000 H   0  0  0  0  0  0  0  0  0  0  0  0
   12.2834    2.1996    0.0000 H   0  0  0  0  0  0  0  0  0  0  0  0
   14.2333   -2.9966    0.0000 H   0  0  0  0  0  0  0  0  0  0  0  0
   14.2333   -2.1996    0.0000 H   0  0  0  0  0  0  0  0  0  0  0  0
   13.7333    3.0656    0.0000 H   0  0  0  0  0  0  0  0  0  0  0  0
   13.7333    3.8626    0.0000 H   0  0  0  0  0  0  0  0  0  0  0  0
   12.7834   -3.0656    0.0000 H   0  0  0  0  0  0  0  0  0  0  0  0
   12.7834   -3.8626    0.0000 H   0  0  0  0  0  0  0  0  0  0  0  0
   12.2834    4.7287    0.0000 H   0  0  0  0  0  0  0  0  0  0  0  0
   12.2834    3.9316    0.0000 H   0  0  0  0  0  0  0  0  0  0  0  0
   14.2333   -4.7287    0.0000 H   0  0  0  0  0  0  0  0  0  0  0  0
   14.2333   -3.9316    0.0000 H   0  0  0  0  0  0  0  0  0  0  0  0
   16.2549    0.9749    0.0000 H   0  0  0  0  0  0  0  0  0  0  0  0
   15.4579    0.9749    0.0000 H   0  0  0  0  0  0  0  0  0  0  0  0
   10.2617   -0.9749    0.0000 H   0  0  0  0  0  0  0  0  0  0  0  0
   11.0588   -0.9749    0.0000 H   0  0  0  0  0  0  0  0  0  0  0  0
   13.7333    4.7976    0.0000 H   0  0  0  0  0  0  0  0  0  0  0  0
   13.7333    5.5947    0.0000 H   0  0  0  0  0  0  0  0  0  0  0  0
   12.7834   -4.7976    0.0000 H   0  0  0  0  0  0  0  0  0  0  0  0
   12.7834   -5.5947    0.0000 H   0  0  0  0  0  0  0  0  0  0  0  0
   16.3239   -0.4749    0.0000 H   0  0  0  0  0  0  0  0  0  0  0  0
   17.1210   -0.4749    0.0000 H   0  0  0  0  0  0  0  0  0  0  0  0
   10.1928    0.4749    0.0000 H   0  0  0  0  0  0  0  0  0  0  0  0
    9.3957    0.4749    0.0000 H   0  0  0  0  0  0  0  0  0  0  0  0
   17.9870    0.9749    0.0000 H   0  0  0  0  0  0  0  0  0  0  0  0
   17.1899    0.9749    0.0000 H   0  0  0  0  0  0  0  0  0  0  0  0
    8.5297   -0.9749    0.0000 H   0  0  0  0  0  0  0  0  0  0  0  0
    9.3267   -0.9749    0.0000 H   0  0  0  0  0  0  0  0  0  0  0  0
   18.0560   -0.4749    0.0000 H   0  0  0  0  0  0  0  0  0  0  0  0
   18.8530   -0.4749    0.0000 H   0  0  0  0  0  0  0  0  0  0  0  0
    8.4607    0.4749    0.0000 H   0  0  0  0  0  0  0  0  0  0  0  0
    7.6636    0.4749    0.0000 H   0  0  0  0  0  0  0  0  0  0  0  0
   19.7190    0.9749    0.0000 H   0  0  0  0  0  0  0  0  0  0  0  0
   18.9220    0.9749    0.0000 H   0  0  0  0  0  0  0  0  0  0  0  0
    6.7976   -0.9749    0.0000 H   0  0  0  0  0  0  0  0  0  0  0  0
    7.5947   -0.9749    0.0000 H   0  0  0  0  0  0  0  0  0  0  0  0
   19.7880   -0.4749    0.0000 H   0  0  0  0  0  0  0  0  0  0  0  0
   20.5851   -0.4749    0.0000 H   0  0  0  0  0  0  0  0  0  0  0  0
    6.7287    0.4749    0.0000 H   0  0  0  0  0  0  0  0  0  0  0  0
    5.9316    0.4749    0.0000 H   0  0  0  0  0  0  0  0  0  0  0  0
   12.2834    6.4607    0.0000 H   0  0  0  0  0  0  0  0  0  0  0  0
   12.2834    5.6636    0.0000 H   0  0  0  0  0  0  0  0  0  0  0  0
   14.2333   -6.4607    0.0000 H   0  0  0  0  0  0  0  0  0  0  0  0
   14.2333   -5.6636    0.0000 H   0  0  0  0  0  0  0  0  0  0  0  0
   21.4511    0.9749    0.0000 H   0  0  0  0  0  0  0  0  0  0  0  0
   20.6540    0.9749    0.0000 H   0  0  0  0  0  0  0  0  0  0  0  0
    5.0656   -0.9749    0.0000 H   0  0  0  0  0  0  0  0  0  0  0  0
    5.8626   -0.9749    0.0000 H   0  0  0  0  0  0  0  0  0  0  0  0
   21.5201   -0.4749    0.0000 H   0  0  0  0  0  0  0  0  0  0  0  0
   22.3171   -0.4749    0.0000 H   0  0  0  0  0  0  0  0  0  0  0  0
    4.9966    0.4749    0.0000 H   0  0  0  0  0  0  0  0  0  0  0  0
    4.1996    0.4749    0.0000 H   0  0  0  0  0  0  0  0  0  0  0  0
   23.1831    0.9749    0.0000 H   0  0  0  0  0  0  0  0  0  0  0  0
   22.3861    0.9749    0.0000 H   0  0  0  0  0  0  0  0  0  0  0  0
    3.3335   -0.9749    0.0000 H   0  0  0  0  0  0  0  0  0  0  0  0
    4.1306   -0.9749    0.0000 H   0  0  0  0  0  0  0  0  0  0  0  0
   13.7953    6.6182    0.0000 H   0  0  0  0  0  0  0  0  0  0  0  0
   13.5683    7.4651    0.0000 H   0  0  0  0  0  0  0  0  0  0  0  0
   12.7214    7.2382    0.0000 H   0  0  0  0  0  0  0  0  0  0  0  0
   12.7214   -6.6182    0.0000 H   0  0  0  0  0  0  0  0  0  0  0  0
   12.9483   -7.4651    0.0000 H   0  0  0  0  0  0  0  0  0  0  0  0
   13.7953   -7.2382    0.0000 H   0  0  0  0  0  0  0  0  0  0  0  0
   23.2521   -0.4749    0.0000 H   0  0  0  0  0  0  0  0  0  0  0  0
   24.0492   -0.4749    0.0000 H   0  0  0  0  0  0  0  0  0  0  0  0
    3.2646    0.4749    0.0000 H   0  0  0  0  0  0  0  0  0  0  0  0
    2.4675    0.4749    0.0000 H   0  0  0  0  0  0  0  0  0  0  0  0
   24.8267   -0.0369    0.0000 H   0  0  0  0  0  0  0  0  0  0  0  0
   25.0536    0.8100    0.0000 H   0  0  0  0  0  0  0  0  0  0  0  0
   24.2067    1.0369    0.0000 H   0  0  0  0  0  0  0  0  0  0  0  0
    1.6900    0.0369    0.0000 H   0  0  0  0  0  0  0  0  0  0  0  0
    1.4631   -0.8100    0.0000 H   0  0  0  0  0  0  0  0  0  0  0  0
    2.3100   -1.0369    0.0000 H   0  0  0  0  0  0  0  0  0  0  0  0
  1  2  1  0  0  0  0
  1  3  1  0  0  0  0
  1  6  1  0  0  0  0
  1  7  1  0  0  0  0
  2 16  1  0  0  0  0
  3 17  1  0  0  0  0
  4 16  2  0  0  0  0
  5 17  2  0  0  0  0
  6  8  1  0  0  0  0
  6 46  1  0  0  0  0
  6 47  1  0  0  0  0
  7  9  1  0  0  0  0
  7 48  1  0  0  0  0
  7 49  1  0  0  0  0
  8 10  1  0  0  0  0
  8 50  1  0  0  0  0
  8 51  1  0  0  0  0
  9 11  1  0  0  0  0
  9 52  1  0  0  0  0
  9 53  1  0  0  0  0
 10 12  1  0  0  0  0
 10 54  1  0  0  0  0
 10 55  1  0  0  0  0
 11 13  1  0  0  0  0
 11 56  1  0  0  0  0
 11 57  1  0  0  0  0
 12 14  1  0  0  0  0
 12 58  1  0  0  0  0
 12 59  1  0  0  0  0
 13 15  1  0  0  0  0
 13 60  1  0  0  0  0
 13 61  1  0  0  0  0
 14 20  1  0  0  0  0
 14 62  1  0  0  0  0
 14 63  1  0  0  0  0
 15 21  1  0  0  0  0
 15 64  1  0  0  0  0
 15 65  1  0  0  0  0
 16 18  1  0  0  0  0
 17 19  1  0  0  0  0
 18 22  1  0  0  0  0
 18 66  1  0  0  0  0
 18 67  1  0  0  0  0
 19 23  1  0  0  0  0
 19 68  1  0  0  0  0
 19 69  1  0  0  0  0
 20 32  1  0  0  0  0
 20 70  1  0  0  0  0
 20 71  1  0  0  0  0
 21 33  1  0  0  0  0
 21 72  1  0  0  0  0
 21 73  1  0  0  0  0
 22 24  1  0  0  0  0
 22 74  1  0  0  0  0
 22 75  1  0  0  0  0
 23 25  1  0  0  0  0
 23 76  1  0  0  0  0
 23 77  1  0  0  0  0
 24 26  1  0  0  0  0
 24 78  1  0  0  0  0
 24 79  1  0  0  0  0
 25 27  1  0  0  0  0
 25 80  1  0  0  0  0
 25 81  1  0  0  0  0
 26 28  1  0  0  0  0
 26 82  1  0  0  0  0
 26 83  1  0  0  0  0
 27 29  1  0  0  0  0
 27 84  1  0  0  0  0
 27 85  1  0  0  0  0
 28 30  1  0  0  0  0
 28 86  1  0  0  0  0
 28 87  1  0  0  0  0
 29 31  1  0  0  0  0
 29 88  1  0  0  0  0
 29 89  1  0  0  0  0
 30 34  1  0  0  0  0
 30 90  1  0  0  0  0
 30 91  1  0  0  0  0
 31 35  1  0  0  0  0
 31 92  1  0  0  0  0
 31 93  1  0  0  0  0
 32 40  1  0  0  0  0
 32 94  1  0  0  0  0
 32 95  1  0  0  0  0
 33 41  1  0  0  0  0
 33 96  1  0  0  0  0
 33 97  1  0  0  0  0
 34 36  1  0  0  0  0
 34 98  1  0  0  0  0
 34 99  1  0  0  0  0
 35 37  1  0  0  0  0
 35100  1  0  0  0  0
 35101  1  0  0  0  0
 36 38  1  0  0  0  0
 36102  1  0  0  0  0
 36103  1  0  0  0  0
 37 39  1  0  0  0  0
 37104  1  0  0  0  0
 37105  1  0  0  0  0
 38 42  1  0  0  0  0
 38106  1  0  0  0  0
 38107  1  0  0  0  0
 39 43  1  0  0  0  0
 39108  1  0  0  0  0
 39109  1  0  0  0  0
 40110  1  0  0  0  0
 40111  1  0  0  0  0
 40112  1  0  0  0  0
 41113  1  0  0  0  0
 41114  1  0  0  0  0
 41115  1  0  0  0  0
 42 44  1  0  0  0  0
 42116  1  0  0  0  0
 42117  1  0  0  0  0
 43 45  1  0  0  0  0
 43118  1  0  0  0  0
 43119  1  0  0  0  0
 44120  1  0  0  0  0
 44121  1  0  0  0  0
 44122  1  0  0  0  0
 45123  1  0  0  0  0
 45124  1  0  0  0  0
 45125  1  0  0  0  0
M  END
> <PUBCHEM_COMPOUND_CID>
16683946

> <PUBCHEM_COMPOUND_CANONICALIZED>
1

> <PUBCHEM_CACTVS_COMPLEXITY>
584

> <PUBCHEM_CACTVS_HBOND_ACCEPTOR>
4

> <PUBCHEM_CACTVS_HBOND_DONOR>
0

> <PUBCHEM_CACTVS_ROTATABLE_BOND>
38

> <PUBCHEM_CACTVS_SUBSKEYS>
AAADcfB8OAAAAAAAAACAAAAAAAAAAAAAAAAAAAAAAAAAAAAAAAAAGgAAAAAACACAgAACCAAAAAAIAACQCAAAAAAAAAAAAAEAAAAAABIAAAAAAAAEAAAAAAGIyKCAAAAAAAAAAAAAAAAAAAAAAAAAAAAAAA==

> <PUBCHEM_IUPAC_OPENEYE_NAME>
[dodecanoyloxy(dioctyl)stannyl] dodecanoate

> <PUBCHEM_IUPAC_CAS_NAME>
dodecanoic acid [dioctyl(1-oxododecoxy)stannyl] ester

> <PUBCHEM_IUPAC_NAME_MARKUP>
[dodecanoyloxy(dioctyl)stannyl] dodecanoate

> <PUBCHEM_IUPAC_NAME>
[dodecanoyloxy(dioctyl)stannyl] dodecanoate

> <PUBCHEM_IUPAC_SYSTEMATIC_NAME>
[dodecanoyloxy(dioctyl)stannyl] dodecanoate

> <PUBCHEM_IUPAC_TRADITIONAL_NAME>
lauric acid [lauroyloxy(dioctyl)stannyl] ester

> <PUBCHEM_IUPAC_INCHI>
InChI=1S/2C12H24O2.2C8H17.Sn/c2*1-2-3-4-5-6-7-8-9-10-11-12(13)14;2*1-3-5-7-8-6-4-2;/h2*2-11H2,1H3,(H,13,14);2*1,3-8H2,2H3;/q;;;;+2/p-2

> <PUBCHEM_IUPAC_INCHIKEY>
XQBCVRSTVUHIGH-UHFFFAOYSA-L

> <PUBCHEM_EXACT_MASS>
744.507864

> <PUBCHEM_MOLECULAR_FORMULA>
C40H80O4Sn

> <PUBCHEM_MOLECULAR_WEIGHT>
743.8

> <PUBCHEM_SMILES>
CCCCCCCCCCCC(=O)O[Sn](CCCCCCCC)(CCCCCCCC)OC(=O)CCCCCCCCCCC

> <PUBCHEM_OPENEYE_CAN_SMILES>
CCCCCCCCCCCC(=O)O[Sn](CCCCCCCC)(CCCCCCCC)OC(=O)CCCCCCCCCCC

> <PUBCHEM_OPENEYE_ISO_SMILES>
CCCCCCCCCCCC(=O)O[Sn](CCCCCCCC)(CCCCCCCC)OC(=O)CCCCCCCCCCC

> <PUBCHEM_CACTVS_TPSA>
52.6

> <PUBCHEM_MONOISOTOPIC_WEIGHT>
744.507864

> <PUBCHEM_TOTAL_CHARGE>
0

> <PUBCHEM_HEAVY_ATOM_COUNT>
45

> <PUBCHEM_ATOM_DEF_STEREO_COUNT>
0

> <PUBCHEM_ATOM_UDEF_STEREO_COUNT>
0

> <PUBCHEM_BOND_DEF_STEREO_COUNT>
0

> <PUBCHEM_BOND_UDEF_STEREO_COUNT>
0

> <PUBCHEM_ISOTOPIC_ATOM_COUNT>
0

> <PUBCHEM_COMPONENT_COUNT>
1

> <PUBCHEM_CACTVS_TAUTO_COUNT>
-1

> <PUBCHEM_COORDINATE_TYPE>
1
5
255

$$$$
