16684013
  -OEChem-04042505492D

 73 72  0     0  0  0  0  0  0999 V2000
    6.3301    0.0000    0.0000 Sn  0  0  0  0  0  0  0  0  0  0  0  0
    7.1962    0.5000    0.0000 O   0  0  0  0  0  0  0  0  0  0  0  0
    5.4641   -0.5000    0.0000 O   0  0  0  0  0  0  0  0  0  0  0  0
    8.0622   -1.0000    0.0000 O   0  0  0  0  0  0  0  0  0  0  0  0
    4.5981    1.0000    0.0000 O   0  0  0  0  0  0  0  0  0  0  0  0
   10.6603   -1.5000    0.0000 O   0  0  0  0  0  0  0  0  0  0  0  0
    2.0000    1.5000    0.0000 O   0  0  0  0  0  0  0  0  0  0  0  0
    8.9282   -1.5000    0.0000 O   0  0  0  0  0  0  0  0  0  0  0  0
    3.7320    1.5000    0.0000 O   0  0  0  0  0  0  0  0  0  0  0  0
    5.8301    0.8660    0.0000 C   0  0  0  0  0  0  0  0  0  0  0  0
    6.8301   -0.8660    0.0000 C   0  0  0  0  0  0  0  0  0  0  0  0
    6.3301    1.7320    0.0000 C   0  0  0  0  0  0  0  0  0  0  0  0
    6.3301   -1.7320    0.0000 C   0  0  0  0  0  0  0  0  0  0  0  0
    5.8301    2.5981    0.0000 C   0  0  0  0  0  0  0  0  0  0  0  0
    6.8301   -2.5981    0.0000 C   0  0  0  0  0  0  0  0  0  0  0  0
    6.3301    3.4641    0.0000 C   0  0  0  0  0  0  0  0  0  0  0  0
    6.3301   -3.4641    0.0000 C   0  0  0  0  0  0  0  0  0  0  0  0
    5.8301    4.3301    0.0000 C   0  0  0  0  0  0  0  0  0  0  0  0
    6.8301   -4.3301    0.0000 C   0  0  0  0  0  0  0  0  0  0  0  0
    6.3301    5.1962    0.0000 C   0  0  0  0  0  0  0  0  0  0  0  0
    6.3301   -5.1962    0.0000 C   0  0  0  0  0  0  0  0  0  0  0  0
    5.8301    6.0622    0.0000 C   0  0  0  0  0  0  0  0  0  0  0  0
    6.8301   -6.0622    0.0000 C   0  0  0  0  0  0  0  0  0  0  0  0
    8.0622    0.0000    0.0000 C   0  0  0  0  0  0  0  0  0  0  0  0
    4.5981   -0.0000    0.0000 C   0  0  0  0  0  0  0  0  0  0  0  0
    6.3301    6.9282    0.0000 C   0  0  0  0  0  0  0  0  0  0  0  0
    6.3301   -6.9282    0.0000 C   0  0  0  0  0  0  0  0  0  0  0  0
    8.9282    0.5000    0.0000 C   0  0  0  0  0  0  0  0  0  0  0  0
    3.7320   -0.5000    0.0000 C   0  0  0  0  0  0  0  0  0  0  0  0
    9.7942   -0.0000    0.0000 C   0  0  0  0  0  0  0  0  0  0  0  0
    2.8660   -0.0000    0.0000 C   0  0  0  0  0  0  0  0  0  0  0  0
    9.7942   -1.0000    0.0000 C   0  0  0  0  0  0  0  0  0  0  0  0
    2.8660    1.0000    0.0000 C   0  0  0  0  0  0  0  0  0  0  0  0
    5.3552    1.2646    0.0000 H   0  0  0  0  0  0  0  0  0  0  0  0
    5.3552    0.4675    0.0000 H   0  0  0  0  0  0  0  0  0  0  0  0
    7.3051   -1.2646    0.0000 H   0  0  0  0  0  0  0  0  0  0  0  0
    7.3051   -0.4675    0.0000 H   0  0  0  0  0  0  0  0  0  0  0  0
    6.8051    1.3335    0.0000 H   0  0  0  0  0  0  0  0  0  0  0  0
    6.8051    2.1306    0.0000 H   0  0  0  0  0  0  0  0  0  0  0  0
    5.8552   -1.3335    0.0000 H   0  0  0  0  0  0  0  0  0  0  0  0
    5.8552   -2.1306    0.0000 H   0  0  0  0  0  0  0  0  0  0  0  0
    5.3552    2.9966    0.0000 H   0  0  0  0  0  0  0  0  0  0  0  0
    5.3552    2.1996    0.0000 H   0  0  0  0  0  0  0  0  0  0  0  0
    7.3051   -2.9966    0.0000 H   0  0  0  0  0  0  0  0  0  0  0  0
    7.3051   -2.1996    0.0000 H   0  0  0  0  0  0  0  0  0  0  0  0
    6.8051    3.0656    0.0000 H   0  0  0  0  0  0  0  0  0  0  0  0
    6.8051    3.8626    0.0000 H   0  0  0  0  0  0  0  0  0  0  0  0
    5.8552   -3.0656    0.0000 H   0  0  0  0  0  0  0  0  0  0  0  0
    5.8552   -3.8626    0.0000 H   0  0  0  0  0  0  0  0  0  0  0  0
    5.3552    4.7287    0.0000 H   0  0  0  0  0  0  0  0  0  0  0  0
    5.3552    3.9316    0.0000 H   0  0  0  0  0  0  0  0  0  0  0  0
    7.3051   -4.7287    0.0000 H   0  0  0  0  0  0  0  0  0  0  0  0
    7.3051   -3.9316    0.0000 H   0  0  0  0  0  0  0  0  0  0  0  0
    6.8051    4.7976    0.0000 H   0  0  0  0  0  0  0  0  0  0  0  0
    6.8051    5.5947    0.0000 H   0  0  0  0  0  0  0  0  0  0  0  0
    5.8552   -4.7976    0.0000 H   0  0  0  0  0  0  0  0  0  0  0  0
    5.8552   -5.5947    0.0000 H   0  0  0  0  0  0  0  0  0  0  0  0
    5.3552    6.4607    0.0000 H   0  0  0  0  0  0  0  0  0  0  0  0
    5.3552    5.6636    0.0000 H   0  0  0  0  0  0  0  0  0  0  0  0
    7.3051   -6.4607    0.0000 H   0  0  0  0  0  0  0  0  0  0  0  0
    7.3051   -5.6636    0.0000 H   0  0  0  0  0  0  0  0  0  0  0  0
    6.8671    6.6182    0.0000 H   0  0  0  0  0  0  0  0  0  0  0  0
    6.6401    7.4651    0.0000 H   0  0  0  0  0  0  0  0  0  0  0  0
    5.7932    7.2382    0.0000 H   0  0  0  0  0  0  0  0  0  0  0  0
    5.7932   -6.6182    0.0000 H   0  0  0  0  0  0  0  0  0  0  0  0
    6.0201   -7.4651    0.0000 H   0  0  0  0  0  0  0  0  0  0  0  0
    6.8671   -7.2382    0.0000 H   0  0  0  0  0  0  0  0  0  0  0  0
    8.9282    1.1200    0.0000 H   0  0  0  0  0  0  0  0  0  0  0  0
    3.7320   -1.1200    0.0000 H   0  0  0  0  0  0  0  0  0  0  0  0
   10.3312    0.3100    0.0000 H   0  0  0  0  0  0  0  0  0  0  0  0
    2.3291   -0.3100    0.0000 H   0  0  0  0  0  0  0  0  0  0  0  0
   10.6603   -2.1200    0.0000 H   0  0  0  0  0  0  0  0  0  0  0  0
    2.0000    2.1200    0.0000 H   0  0  0  0  0  0  0  0  0  0  0  0
  1  2  1  0  0  0  0
  1  3  1  0  0  0  0
  1 10  1  0  0  0  0
  1 11  1  0  0  0  0
  2 24  1  0  0  0  0
  3 25  1  0  0  0  0
  4 24  2  0  0  0  0
  5 25  2  0  0  0  0
  6 32  1  0  0  0  0
  6 72  1  0  0  0  0
  7 33  1  0  0  0  0
  7 73  1  0  0  0  0
  8 32  2  0  0  0  0
  9 33  2  0  0  0  0
 10 12  1  0  0  0  0
 10 34  1  0  0  0  0
 10 35  1  0  0  0  0
 11 13  1  0  0  0  0
 11 36  1  0  0  0  0
 11 37  1  0  0  0  0
 12 14  1  0  0  0  0
 12 38  1  0  0  0  0
 12 39  1  0  0  0  0
 13 15  1  0  0  0  0
 13 40  1  0  0  0  0
 13 41  1  0  0  0  0
 14 16  1  0  0  0  0
 14 42  1  0  0  0  0
 14 43  1  0  0  0  0
 15 17  1  0  0  0  0
 15 44  1  0  0  0  0
 15 45  1  0  0  0  0
 16 18  1  0  0  0  0
 16 46  1  0  0  0  0
 16 47  1  0  0  0  0
 17 19  1  0  0  0  0
 17 48  1  0  0  0  0
 17 49  1  0  0  0  0
 18 20  1  0  0  0  0
 18 50  1  0  0  0  0
 18 51  1  0  0  0  0
 19 21  1  0  0  0  0
 19 52  1  0  0  0  0
 19 53  1  0  0  0  0
 20 22  1  0  0  0  0
 20 54  1  0  0  0  0
 20 55  1  0  0  0  0
 21 23  1  0  0  0  0
 21 56  1  0  0  0  0
 21 57  1  0  0  0  0
 22 26  1  0  0  0  0
 22 58  1  0  0  0  0
 22 59  1  0  0  0  0
 23 27  1  0  0  0  0
 23 60  1  0  0  0  0
 23 61  1  0  0  0  0
 24 28  1  0  0  0  0
 25 29  1  0  0  0  0
 26 62  1  0  0  0  0
 26 63  1  0  0  0  0
 26 64  1  0  0  0  0
 27 65  1  0  0  0  0
 27 66  1  0  0  0  0
 27 67  1  0  0  0  0
 28 30  2  0  0  0  0
 28 68  1  0  0  0  0
 29 31  2  0  0  0  0
 29 69  1  0  0  0  0
 30 32  1  0  0  0  0
 30 70  1  0  0  0  0
 31 33  1  0  0  0  0
 31 71  1  0  0  0  0
M  END
> <PUBCHEM_COMPOUND_CID>
16684013

> <PUBCHEM_COMPOUND_CANONICALIZED>
1

> <PUBCHEM_CACTVS_COMPLEXITY>
601

> <PUBCHEM_CACTVS_HBOND_ACCEPTOR>
8

> <PUBCHEM_CACTVS_HBOND_DONOR>
2

> <PUBCHEM_CACTVS_ROTATABLE_BOND>
22

> <PUBCHEM_CACTVS_SUBSKEYS>
AAADcfB4PAAAAAAAAACAAAAAAAAAAAAAAAAAAAAAAAAAAAAAAAAAGgAACAAACACAgAACCAAAAgCIACDSCAAAAAAAAAAICAAAAEAABAIAAAAAEAAAAAAAEYEAgIAAAAAAAAAAAAAAAAAAAAAAAAAAAAAAAA==

> <PUBCHEM_IUPAC_OPENEYE_NAME>
(Z)-4-[[(Z)-3-carboxyprop-2-enoyl]oxy-dioctyl-stannyl]oxy-4-oxo-but-2-enoic acid

> <PUBCHEM_IUPAC_CAS_NAME>
(Z)-4-[[(Z)-3-carboxy-1-oxoprop-2-enoxy]-dioctylstannyl]oxy-4-oxo-2-butenoic acid

> <PUBCHEM_IUPAC_NAME_MARKUP>
(<I>Z</I>)-4-[[(<I>Z</I>)-3-carboxyprop-2-enoyl]oxy-dioctylstannyl]oxy-4-oxobut-2-enoic acid

> <PUBCHEM_IUPAC_NAME>
(Z)-4-[[(Z)-3-carboxyprop-2-enoyl]oxy-dioctylstannyl]oxy-4-oxobut-2-enoic acid

> <PUBCHEM_IUPAC_SYSTEMATIC_NAME>
(Z)-4-[dioctyl-[(Z)-4-oxidanyl-4-oxidanylidene-but-2-enoyl]oxy-stannyl]oxy-4-oxidanylidene-but-2-enoic acid

> <PUBCHEM_IUPAC_TRADITIONAL_NAME>
(Z)-4-[[(Z)-3-carboxyacryloyl]oxy-dioctyl-stannyl]oxy-4-keto-but-2-enoic acid

> <PUBCHEM_IUPAC_INCHI>
InChI=1S/2C8H17.2C4H4O4.Sn/c2*1-3-5-7-8-6-4-2;2*5-3(6)1-2-4(7)8;/h2*1,3-8H2,2H3;2*1-2H,(H,5,6)(H,7,8);/q;;;;+2/p-2/b;;2*2-1-;

> <PUBCHEM_IUPAC_INCHIKEY>
WNEDOMBPJDUQPS-BFIADXHOSA-L

> <PUBCHEM_EXACT_MASS>
576.174521

> <PUBCHEM_MOLECULAR_FORMULA>
C24H40O8Sn

> <PUBCHEM_MOLECULAR_WEIGHT>
575.3

> <PUBCHEM_SMILES>
CCCCCCCC[Sn](OC(=O)/C=C\C(=O)O)(OC(=O)/C=C\C(=O)O)CCCCCCCC

> <PUBCHEM_OPENEYE_CAN_SMILES>
CCCCCCCC[Sn](CCCCCCCC)(OC(=O)C=CC(=O)O)OC(=O)C=CC(=O)O

> <PUBCHEM_OPENEYE_ISO_SMILES>
CCCCCCCC[Sn](OC(=O)/C=C\C(=O)O)(OC(=O)/C=C\C(=O)O)CCCCCCCC

> <PUBCHEM_CACTVS_TPSA>
127

> <PUBCHEM_MONOISOTOPIC_WEIGHT>
576.174521

> <PUBCHEM_TOTAL_CHARGE>
0

> <PUBCHEM_HEAVY_ATOM_COUNT>
33

> <PUBCHEM_ATOM_DEF_STEREO_COUNT>
0

> <PUBCHEM_ATOM_UDEF_STEREO_COUNT>
0

> <PUBCHEM_BOND_DEF_STEREO_COUNT>
2

> <PUBCHEM_BOND_UDEF_STEREO_COUNT>
0

> <PUBCHEM_ISOTOPIC_ATOM_COUNT>
0

> <PUBCHEM_COMPONENT_COUNT>
1

> <PUBCHEM_CACTVS_TAUTO_COUNT>
-1

> <PUBCHEM_COORDINATE_TYPE>
1
5
255

$$$$
