16682773
  -OEChem-04042505492D

 58 58  0     0  0  0  0  0  0999 V2000
    8.3292    0.2873    0.0000 Sn  0  0  0  0  0  0  0  0  0  0  0  0
    7.5202    0.8751    0.0000 S   0  0  0  0  0  0  0  0  0  0  0  0
    9.1382    0.8751    0.0000 O   0  0  0  0  0  0  0  0  0  0  0  0
    9.4170    2.6352    0.0000 O   0  0  0  0  0  0  0  0  0  0  0  0
    7.7414   -0.5217    0.0000 C   0  0  0  0  0  0  0  0  0  0  0  0
    8.9170   -0.5217    0.0000 C   0  0  0  0  0  0  0  0  0  0  0  0
    6.7469   -0.4172    0.0000 C   0  0  0  0  0  0  0  0  0  0  0  0
    9.9115   -0.4172    0.0000 C   0  0  0  0  0  0  0  0  0  0  0  0
    6.1591   -1.2262    0.0000 C   0  0  0  0  0  0  0  0  0  0  0  0
   10.4993   -1.2262    0.0000 C   0  0  0  0  0  0  0  0  0  0  0  0
    5.1646   -1.1217    0.0000 C   0  0  0  0  0  0  0  0  0  0  0  0
   11.4938   -1.1217    0.0000 C   0  0  0  0  0  0  0  0  0  0  0  0
    7.8292    1.8262    0.0000 C   0  0  0  0  0  0  0  0  0  0  0  0
    4.5768   -1.9307    0.0000 C   0  0  0  0  0  0  0  0  0  0  0  0
   12.0816   -1.9307    0.0000 C   0  0  0  0  0  0  0  0  0  0  0  0
    8.8292    1.8262    0.0000 C   0  0  0  0  0  0  0  0  0  0  0  0
    3.5823   -1.8262    0.0000 C   0  0  0  0  0  0  0  0  0  0  0  0
   13.0761   -1.8262    0.0000 C   0  0  0  0  0  0  0  0  0  0  0  0
    2.9945   -2.6352    0.0000 C   0  0  0  0  0  0  0  0  0  0  0  0
   13.6639   -2.6352    0.0000 C   0  0  0  0  0  0  0  0  0  0  0  0
    2.0000   -2.5306    0.0000 C   0  0  0  0  0  0  0  0  0  0  0  0
   14.6585   -2.5306    0.0000 C   0  0  0  0  0  0  0  0  0  0  0  0
    7.5706   -1.1177    0.0000 H   0  0  0  0  0  0  0  0  0  0  0  0
    8.2987   -0.7935    0.0000 H   0  0  0  0  0  0  0  0  0  0  0  0
    8.3598   -0.7935    0.0000 H   0  0  0  0  0  0  0  0  0  0  0  0
    9.0879   -1.1177    0.0000 H   0  0  0  0  0  0  0  0  0  0  0  0
    6.9178    0.1788    0.0000 H   0  0  0  0  0  0  0  0  0  0  0  0
    6.1897   -0.1454    0.0000 H   0  0  0  0  0  0  0  0  0  0  0  0
   10.4688   -0.1454    0.0000 H   0  0  0  0  0  0  0  0  0  0  0  0
    9.7406    0.1788    0.0000 H   0  0  0  0  0  0  0  0  0  0  0  0
    5.9882   -1.8222    0.0000 H   0  0  0  0  0  0  0  0  0  0  0  0
    6.7164   -1.4980    0.0000 H   0  0  0  0  0  0  0  0  0  0  0  0
    9.9421   -1.4980    0.0000 H   0  0  0  0  0  0  0  0  0  0  0  0
   10.6702   -1.8222    0.0000 H   0  0  0  0  0  0  0  0  0  0  0  0
    5.3355   -0.5257    0.0000 H   0  0  0  0  0  0  0  0  0  0  0  0
    4.6074   -0.8499    0.0000 H   0  0  0  0  0  0  0  0  0  0  0  0
   12.0511   -0.8499    0.0000 H   0  0  0  0  0  0  0  0  0  0  0  0
   11.3229   -0.5257    0.0000 H   0  0  0  0  0  0  0  0  0  0  0  0
    7.8940    2.4428    0.0000 H   0  0  0  0  0  0  0  0  0  0  0  0
    7.2228    1.9551    0.0000 H   0  0  0  0  0  0  0  0  0  0  0  0
    4.4059   -2.5267    0.0000 H   0  0  0  0  0  0  0  0  0  0  0  0
    5.1341   -2.2025    0.0000 H   0  0  0  0  0  0  0  0  0  0  0  0
   11.5244   -2.2025    0.0000 H   0  0  0  0  0  0  0  0  0  0  0  0
   12.2525   -2.5267    0.0000 H   0  0  0  0  0  0  0  0  0  0  0  0
    3.7532   -1.2302    0.0000 H   0  0  0  0  0  0  0  0  0  0  0  0
    3.0250   -1.5544    0.0000 H   0  0  0  0  0  0  0  0  0  0  0  0
   13.6334   -1.5544    0.0000 H   0  0  0  0  0  0  0  0  0  0  0  0
   12.9053   -1.2302    0.0000 H   0  0  0  0  0  0  0  0  0  0  0  0
    2.8236   -3.2312    0.0000 H   0  0  0  0  0  0  0  0  0  0  0  0
    3.5518   -2.9070    0.0000 H   0  0  0  0  0  0  0  0  0  0  0  0
   13.1067   -2.9070    0.0000 H   0  0  0  0  0  0  0  0  0  0  0  0
   13.8348   -3.2312    0.0000 H   0  0  0  0  0  0  0  0  0  0  0  0
    2.0648   -1.9140    0.0000 H   0  0  0  0  0  0  0  0  0  0  0  0
    1.3834   -2.4658    0.0000 H   0  0  0  0  0  0  0  0  0  0  0  0
    1.9352   -3.1472    0.0000 H   0  0  0  0  0  0  0  0  0  0  0  0
   14.7233   -3.1472    0.0000 H   0  0  0  0  0  0  0  0  0  0  0  0
   15.2751   -2.4658    0.0000 H   0  0  0  0  0  0  0  0  0  0  0  0
   14.5936   -1.9140    0.0000 H   0  0  0  0  0  0  0  0  0  0  0  0
  1  2  1  0  0  0  0
  1  3  1  0  0  0  0
  1  5  1  0  0  0  0
  1  6  1  0  0  0  0
  2 13  1  0  0  0  0
  3 16  1  0  0  0  0
  4 16  2  0  0  0  0
  5  7  1  0  0  0  0
  5 23  1  0  0  0  0
  5 24  1  0  0  0  0
  6  8  1  0  0  0  0
  6 25  1  0  0  0  0
  6 26  1  0  0  0  0
  7  9  1  0  0  0  0
  7 27  1  0  0  0  0
  7 28  1  0  0  0  0
  8 10  1  0  0  0  0
  8 29  1  0  0  0  0
  8 30  1  0  0  0  0
  9 11  1  0  0  0  0
  9 31  1  0  0  0  0
  9 32  1  0  0  0  0
 10 12  1  0  0  0  0
 10 33  1  0  0  0  0
 10 34  1  0  0  0  0
 11 14  1  0  0  0  0
 11 35  1  0  0  0  0
 11 36  1  0  0  0  0
 12 15  1  0  0  0  0
 12 37  1  0  0  0  0
 12 38  1  0  0  0  0
 13 16  1  0  0  0  0
 13 39  1  0  0  0  0
 13 40  1  0  0  0  0
 14 17  1  0  0  0  0
 14 41  1  0  0  0  0
 14 42  1  0  0  0  0
 15 18  1  0  0  0  0
 15 43  1  0  0  0  0
 15 44  1  0  0  0  0
 17 19  1  0  0  0  0
 17 45  1  0  0  0  0
 17 46  1  0  0  0  0
 18 20  1  0  0  0  0
 18 47  1  0  0  0  0
 18 48  1  0  0  0  0
 19 21  1  0  0  0  0
 19 49  1  0  0  0  0
 19 50  1  0  0  0  0
 20 22  1  0  0  0  0
 20 51  1  0  0  0  0
 20 52  1  0  0  0  0
 21 53  1  0  0  0  0
 21 54  1  0  0  0  0
 21 55  1  0  0  0  0
 22 56  1  0  0  0  0
 22 57  1  0  0  0  0
 22 58  1  0  0  0  0
M  END
> <PUBCHEM_COMPOUND_CID>
16682773

> <PUBCHEM_COMPOUND_CANONICALIZED>
1

> <PUBCHEM_CACTVS_COMPLEXITY>
281

> <PUBCHEM_CACTVS_HBOND_ACCEPTOR>
3

> <PUBCHEM_CACTVS_HBOND_DONOR>
0

> <PUBCHEM_CACTVS_ROTATABLE_BOND>
14

> <PUBCHEM_CACTVS_SUBSKEYS>
AAADcfB4MABAAAAAAACAAAAAAAAAASAAAAAAAAAAAAAAAAAAAAAAGgQAAAAACACEwACCCAAAAAAIAACQCAAAAAAAAAAAAAAAAAAAAAIAAAAAAAAAAAAAAAEAgIAAAAAAAAAAAAAAAAAAAAAAAAAAAAAAAA==

> <PUBCHEM_IUPAC_OPENEYE_NAME>
2,2-dioctyl-1,3,2-oxathiastannolan-5-one

> <PUBCHEM_IUPAC_CAS_NAME>
2,2-dioctyl-1,3,2-oxathiastannolan-5-one

> <PUBCHEM_IUPAC_NAME_MARKUP>
2,2-dioctyl-1,3,2-oxathiastannolan-5-one

> <PUBCHEM_IUPAC_NAME>
2,2-dioctyl-1,3,2-oxathiastannolan-5-one

> <PUBCHEM_IUPAC_SYSTEMATIC_NAME>
2,2-dioctyl-1,3,2-oxathiastannolan-5-one

> <PUBCHEM_IUPAC_TRADITIONAL_NAME>
2,2-dioctyl-1-oxa-3-thia-2-stannacyclopentan-5-one

> <PUBCHEM_IUPAC_INCHI>
InChI=1S/2C8H17.C2H4O2S.Sn/c2*1-3-5-7-8-6-4-2;3-2(4)1-5;/h2*1,3-8H2,2H3;5H,1H2,(H,3,4);/q;;;+2/p-2

> <PUBCHEM_IUPAC_INCHIKEY>
KEUUHXDTZRYITO-UHFFFAOYSA-L

> <PUBCHEM_EXACT_MASS>
436.145804

> <PUBCHEM_MOLECULAR_FORMULA>
C18H36O2SSn

> <PUBCHEM_MOLECULAR_WEIGHT>
435.3

> <PUBCHEM_SMILES>
CCCCCCCC[Sn]1(OC(=O)CS1)CCCCCCCC

> <PUBCHEM_OPENEYE_CAN_SMILES>
CCCCCCCC[Sn]1(OC(=O)CS1)CCCCCCCC

> <PUBCHEM_OPENEYE_ISO_SMILES>
CCCCCCCC[Sn]1(OC(=O)CS1)CCCCCCCC

> <PUBCHEM_CACTVS_TPSA>
51.6

> <PUBCHEM_MONOISOTOPIC_WEIGHT>
436.145804

> <PUBCHEM_TOTAL_CHARGE>
0

> <PUBCHEM_HEAVY_ATOM_COUNT>
22

> <PUBCHEM_ATOM_DEF_STEREO_COUNT>
0

> <PUBCHEM_ATOM_UDEF_STEREO_COUNT>
0

> <PUBCHEM_BOND_DEF_STEREO_COUNT>
0

> <PUBCHEM_BOND_UDEF_STEREO_COUNT>
0

> <PUBCHEM_ISOTOPIC_ATOM_COUNT>
0

> <PUBCHEM_COMPONENT_COUNT>
1

> <PUBCHEM_CACTVS_TAUTO_COUNT>
-1

> <PUBCHEM_COORDINATE_TYPE>
1
5
255

$$$$
