171319
  -OEChem-04042513072D

164164  0     1  0  0  0  0  0999 V2000
   17.8137   -6.1244    0.0000 O   0  0  0  0  0  0  0  0  0  0  0  0
   17.3137   -3.5856    0.0000 O   0  0  0  0  0  0  0  0  0  0  0  0
   15.5536   -4.8644    0.0000 O   0  0  0  0  0  0  0  0  0  0  0  0
   19.8169   -5.5335    0.0000 O   0  0  0  0  0  0  0  0  0  0  0  0
   20.2327   -3.5772    0.0000 O   0  0  0  0  0  0  0  0  0  0  0  0
   15.5816   -3.5856    0.0000 O   0  0  0  0  0  0  0  0  0  0  0  0
   15.0184   -6.5116    0.0000 O   0  0  0  0  0  0  0  0  0  0  0  0
   20.9759   -4.2463    0.0000 O   0  0  0  0  0  0  0  0  0  0  0  0
   18.1227   -5.1734    0.0000 C   0  0  1  0  0  0  0  0  0  0  0  0
   17.3137   -4.5856    0.0000 C   0  0  1  0  0  0  0  0  0  0  0  0
   16.5047   -5.1734    0.0000 C   0  0  2  0  0  0  0  0  0  0  0  0
   19.0738   -4.8644    0.0000 C   0  0  1  0  0  0  0  0  0  0  0  0
   16.8137   -6.1244    0.0000 C   0  0  0  0  0  0  0  0  0  0  0  0
   19.2817   -3.8862    0.0000 C   0  0  0  0  0  0  0  0  0  0  0  0
   16.4477   -3.0856    0.0000 C   0  0  0  0  0  0  0  0  0  0  0  0
   14.8105   -5.5335    0.0000 C   0  0  0  0  0  0  0  0  0  0  0  0
   16.4477   -2.0856    0.0000 C   0  0  0  0  0  0  0  0  0  0  0  0
   13.8594   -5.2245    0.0000 C   0  0  0  0  0  0  0  0  0  0  0  0
   20.7680   -5.2245    0.0000 C   0  0  0  0  0  0  0  0  0  0  0  0
   15.5816   -1.5856    0.0000 C   0  0  0  0  0  0  0  0  0  0  0  0
   13.1163   -5.8936    0.0000 C   0  0  0  0  0  0  0  0  0  0  0  0
   21.5111   -5.8936    0.0000 C   0  0  0  0  0  0  0  0  0  0  0  0
   15.5816   -0.5856    0.0000 C   0  0  0  0  0  0  0  0  0  0  0  0
   12.1652   -5.5846    0.0000 C   0  0  0  0  0  0  0  0  0  0  0  0
   22.4622   -5.5846    0.0000 C   0  0  0  0  0  0  0  0  0  0  0  0
   14.7156   -0.0856    0.0000 C   0  0  0  0  0  0  0  0  0  0  0  0
   11.4221   -6.2537    0.0000 C   0  0  0  0  0  0  0  0  0  0  0  0
   23.2053   -6.2537    0.0000 C   0  0  0  0  0  0  0  0  0  0  0  0
   14.7156    0.9144    0.0000 C   0  0  0  0  0  0  0  0  0  0  0  0
   10.4710   -5.9447    0.0000 C   0  0  0  0  0  0  0  0  0  0  0  0
   24.1564   -5.9447    0.0000 C   0  0  0  0  0  0  0  0  0  0  0  0
   13.8496    1.4144    0.0000 C   0  0  0  0  0  0  0  0  0  0  0  0
    9.7279   -6.6138    0.0000 C   0  0  0  0  0  0  0  0  0  0  0  0
   24.8995   -6.6138    0.0000 C   0  0  0  0  0  0  0  0  0  0  0  0
   13.8496    2.4144    0.0000 C   0  0  0  0  0  0  0  0  0  0  0  0
   25.8506   -6.3048    0.0000 C   0  0  0  0  0  0  0  0  0  0  0  0
    8.7768   -6.3048    0.0000 C   0  0  0  0  0  0  0  0  0  0  0  0
   12.9836    2.9144    0.0000 C   0  0  0  0  0  0  0  0  0  0  0  0
   26.5937   -6.9740    0.0000 C   0  0  0  0  0  0  0  0  0  0  0  0
    8.0337   -6.9740    0.0000 C   0  0  0  0  0  0  0  0  0  0  0  0
   27.5448   -6.6649    0.0000 C   0  0  0  0  0  0  0  0  0  0  0  0
   12.9836    3.9144    0.0000 C   0  0  0  0  0  0  0  0  0  0  0  0
    7.0826   -6.6649    0.0000 C   0  0  0  0  0  0  0  0  0  0  0  0
   28.2879   -7.3341    0.0000 C   0  0  0  0  0  0  0  0  0  0  0  0
   12.1175    4.4144    0.0000 C   0  0  0  0  0  0  0  0  0  0  0  0
    6.3395   -7.3341    0.0000 C   0  0  0  0  0  0  0  0  0  0  0  0
   29.2390   -7.0250    0.0000 C   0  0  0  0  0  0  0  0  0  0  0  0
   12.1175    5.4144    0.0000 C   0  0  0  0  0  0  0  0  0  0  0  0
    5.3884   -7.0250    0.0000 C   0  0  0  0  0  0  0  0  0  0  0  0
   29.9821   -7.6942    0.0000 C   0  0  0  0  0  0  0  0  0  0  0  0
   11.2515    5.9144    0.0000 C   0  0  0  0  0  0  0  0  0  0  0  0
    4.6453   -7.6942    0.0000 C   0  0  0  0  0  0  0  0  0  0  0  0
   30.9332   -7.3852    0.0000 C   0  0  0  0  0  0  0  0  0  0  0  0
   11.2515    6.9144    0.0000 C   0  0  0  0  0  0  0  0  0  0  0  0
    3.6942   -7.3852    0.0000 C   0  0  0  0  0  0  0  0  0  0  0  0
   31.6763   -8.0543    0.0000 C   0  0  0  0  0  0  0  0  0  0  0  0
   10.3855    7.4144    0.0000 C   0  0  0  0  0  0  0  0  0  0  0  0
    2.9511   -8.0543    0.0000 C   0  0  0  0  0  0  0  0  0  0  0  0
   32.6274   -7.7453    0.0000 C   0  0  0  0  0  0  0  0  0  0  0  0
   10.3855    8.4144    0.0000 C   0  0  0  0  0  0  0  0  0  0  0  0
    2.0000   -7.7453    0.0000 C   0  0  0  0  0  0  0  0  0  0  0  0
   33.3705   -8.4144    0.0000 C   0  0  0  0  0  0  0  0  0  0  0  0
   18.7237   -5.7744    0.0000 H   0  0  0  0  0  0  0  0  0  0  0  0
   17.8661   -4.3041    0.0000 H   0  0  0  0  0  0  0  0  0  0  0  0
   16.0663   -5.6118    0.0000 H   0  0  0  0  0  0  0  0  0  0  0  0
   18.9449   -5.4708    0.0000 H   0  0  0  0  0  0  0  0  0  0  0  0
   16.2072   -6.2533    0.0000 H   0  0  0  0  0  0  0  0  0  0  0  0
   16.8785   -6.7410    0.0000 H   0  0  0  0  0  0  0  0  0  0  0  0
   19.1954   -3.2722    0.0000 H   0  0  0  0  0  0  0  0  0  0  0  0
   18.6620   -3.8646    0.0000 H   0  0  0  0  0  0  0  0  0  0  0  0
   17.0582   -2.1933    0.0000 H   0  0  0  0  0  0  0  0  0  0  0  0
   16.6597   -1.5030    0.0000 H   0  0  0  0  0  0  0  0  0  0  0  0
   14.1505   -4.6771    0.0000 H   0  0  0  0  0  0  0  0  0  0  0  0
   13.3708   -4.8428    0.0000 H   0  0  0  0  0  0  0  0  0  0  0  0
   14.9711   -1.4779    0.0000 H   0  0  0  0  0  0  0  0  0  0  0  0
   15.3696   -2.1682    0.0000 H   0  0  0  0  0  0  0  0  0  0  0  0
   12.8252   -6.4410    0.0000 H   0  0  0  0  0  0  0  0  0  0  0  0
   13.6048   -6.2753    0.0000 H   0  0  0  0  0  0  0  0  0  0  0  0
   21.0225   -6.2753    0.0000 H   0  0  0  0  0  0  0  0  0  0  0  0
   21.8022   -6.4410    0.0000 H   0  0  0  0  0  0  0  0  0  0  0  0
   16.1922   -0.6933    0.0000 H   0  0  0  0  0  0  0  0  0  0  0  0
   15.7937   -0.0030    0.0000 H   0  0  0  0  0  0  0  0  0  0  0  0
   20.3616   -2.9707    0.0000 H   0  0  0  0  0  0  0  0  0  0  0  0
   12.4563   -5.0372    0.0000 H   0  0  0  0  0  0  0  0  0  0  0  0
   11.6766   -5.2029    0.0000 H   0  0  0  0  0  0  0  0  0  0  0  0
   22.9507   -5.2029    0.0000 H   0  0  0  0  0  0  0  0  0  0  0  0
   22.1711   -5.0372    0.0000 H   0  0  0  0  0  0  0  0  0  0  0  0
   14.1050    0.0221    0.0000 H   0  0  0  0  0  0  0  0  0  0  0  0
   14.5036   -0.6682    0.0000 H   0  0  0  0  0  0  0  0  0  0  0  0
   11.1310   -6.8012    0.0000 H   0  0  0  0  0  0  0  0  0  0  0  0
   11.9106   -6.6354    0.0000 H   0  0  0  0  0  0  0  0  0  0  0  0
   22.7167   -6.6354    0.0000 H   0  0  0  0  0  0  0  0  0  0  0  0
   23.4964   -6.8012    0.0000 H   0  0  0  0  0  0  0  0  0  0  0  0
   15.3262    0.8067    0.0000 H   0  0  0  0  0  0  0  0  0  0  0  0
   14.9277    1.4970    0.0000 H   0  0  0  0  0  0  0  0  0  0  0  0
   10.7621   -5.3973    0.0000 H   0  0  0  0  0  0  0  0  0  0  0  0
    9.9824   -5.5630    0.0000 H   0  0  0  0  0  0  0  0  0  0  0  0
   24.6449   -5.5630    0.0000 H   0  0  0  0  0  0  0  0  0  0  0  0
   23.8653   -5.3973    0.0000 H   0  0  0  0  0  0  0  0  0  0  0  0
   13.2390    1.5221    0.0000 H   0  0  0  0  0  0  0  0  0  0  0  0
   13.6375    0.8318    0.0000 H   0  0  0  0  0  0  0  0  0  0  0  0
    9.4368   -7.1613    0.0000 H   0  0  0  0  0  0  0  0  0  0  0  0
   10.2164   -6.9956    0.0000 H   0  0  0  0  0  0  0  0  0  0  0  0
   24.4109   -6.9956    0.0000 H   0  0  0  0  0  0  0  0  0  0  0  0
   25.1906   -7.1613    0.0000 H   0  0  0  0  0  0  0  0  0  0  0  0
   14.4602    2.3067    0.0000 H   0  0  0  0  0  0  0  0  0  0  0  0
   14.0616    2.9970    0.0000 H   0  0  0  0  0  0  0  0  0  0  0  0
   26.3391   -5.9231    0.0000 H   0  0  0  0  0  0  0  0  0  0  0  0
   25.5595   -5.7574    0.0000 H   0  0  0  0  0  0  0  0  0  0  0  0
    9.0679   -5.7574    0.0000 H   0  0  0  0  0  0  0  0  0  0  0  0
    8.2882   -5.9231    0.0000 H   0  0  0  0  0  0  0  0  0  0  0  0
   12.3730    3.0221    0.0000 H   0  0  0  0  0  0  0  0  0  0  0  0
   12.7715    2.3318    0.0000 H   0  0  0  0  0  0  0  0  0  0  0  0
   26.1051   -7.3557    0.0000 H   0  0  0  0  0  0  0  0  0  0  0  0
   26.8848   -7.5214    0.0000 H   0  0  0  0  0  0  0  0  0  0  0  0
    7.7426   -7.5214    0.0000 H   0  0  0  0  0  0  0  0  0  0  0  0
    8.5222   -7.3557    0.0000 H   0  0  0  0  0  0  0  0  0  0  0  0
   28.0333   -6.2832    0.0000 H   0  0  0  0  0  0  0  0  0  0  0  0
   27.2537   -6.1175    0.0000 H   0  0  0  0  0  0  0  0  0  0  0  0
   13.5941    3.8067    0.0000 H   0  0  0  0  0  0  0  0  0  0  0  0
   13.1956    4.4970    0.0000 H   0  0  0  0  0  0  0  0  0  0  0  0
    7.3737   -6.1175    0.0000 H   0  0  0  0  0  0  0  0  0  0  0  0
    6.5940   -6.2832    0.0000 H   0  0  0  0  0  0  0  0  0  0  0  0
   27.7993   -7.7158    0.0000 H   0  0  0  0  0  0  0  0  0  0  0  0
   28.5790   -7.8815    0.0000 H   0  0  0  0  0  0  0  0  0  0  0  0
   11.5070    4.5221    0.0000 H   0  0  0  0  0  0  0  0  0  0  0  0
   11.9055    3.8318    0.0000 H   0  0  0  0  0  0  0  0  0  0  0  0
    6.0484   -7.8815    0.0000 H   0  0  0  0  0  0  0  0  0  0  0  0
    6.8280   -7.7158    0.0000 H   0  0  0  0  0  0  0  0  0  0  0  0
   29.7275   -6.6433    0.0000 H   0  0  0  0  0  0  0  0  0  0  0  0
   28.9479   -6.4776    0.0000 H   0  0  0  0  0  0  0  0  0  0  0  0
   12.7281    5.3067    0.0000 H   0  0  0  0  0  0  0  0  0  0  0  0
   12.3296    5.9970    0.0000 H   0  0  0  0  0  0  0  0  0  0  0  0
    5.6795   -6.4776    0.0000 H   0  0  0  0  0  0  0  0  0  0  0  0
    4.8998   -6.6433    0.0000 H   0  0  0  0  0  0  0  0  0  0  0  0
   29.4935   -8.0759    0.0000 H   0  0  0  0  0  0  0  0  0  0  0  0
   30.2732   -8.2416    0.0000 H   0  0  0  0  0  0  0  0  0  0  0  0
   10.6409    6.0221    0.0000 H   0  0  0  0  0  0  0  0  0  0  0  0
   11.0395    5.3318    0.0000 H   0  0  0  0  0  0  0  0  0  0  0  0
    4.3542   -8.2416    0.0000 H   0  0  0  0  0  0  0  0  0  0  0  0
    5.1338   -8.0759    0.0000 H   0  0  0  0  0  0  0  0  0  0  0  0
   31.4217   -7.0034    0.0000 H   0  0  0  0  0  0  0  0  0  0  0  0
   30.6421   -6.8377    0.0000 H   0  0  0  0  0  0  0  0  0  0  0  0
   11.8621    6.8067    0.0000 H   0  0  0  0  0  0  0  0  0  0  0  0
   11.4636    7.4970    0.0000 H   0  0  0  0  0  0  0  0  0  0  0  0
    3.9853   -6.8377    0.0000 H   0  0  0  0  0  0  0  0  0  0  0  0
    3.2056   -7.0034    0.0000 H   0  0  0  0  0  0  0  0  0  0  0  0
   31.1877   -8.4360    0.0000 H   0  0  0  0  0  0  0  0  0  0  0  0
   31.9674   -8.6017    0.0000 H   0  0  0  0  0  0  0  0  0  0  0  0
    9.7749    7.5221    0.0000 H   0  0  0  0  0  0  0  0  0  0  0  0
   10.1734    6.8318    0.0000 H   0  0  0  0  0  0  0  0  0  0  0  0
    2.6600   -8.6017    0.0000 H   0  0  0  0  0  0  0  0  0  0  0  0
    3.4396   -8.4360    0.0000 H   0  0  0  0  0  0  0  0  0  0  0  0
   33.1159   -7.3636    0.0000 H   0  0  0  0  0  0  0  0  0  0  0  0
   32.3363   -7.1978    0.0000 H   0  0  0  0  0  0  0  0  0  0  0  0
   11.0055    8.4144    0.0000 H   0  0  0  0  0  0  0  0  0  0  0  0
   10.3855    9.0344    0.0000 H   0  0  0  0  0  0  0  0  0  0  0  0
    9.7655    8.4144    0.0000 H   0  0  0  0  0  0  0  0  0  0  0  0
    2.1916   -7.1556    0.0000 H   0  0  0  0  0  0  0  0  0  0  0  0
    1.4103   -7.5537    0.0000 H   0  0  0  0  0  0  0  0  0  0  0  0
    1.8084   -8.3349    0.0000 H   0  0  0  0  0  0  0  0  0  0  0  0
   32.9557   -8.8752    0.0000 H   0  0  0  0  0  0  0  0  0  0  0  0
   33.8313   -8.8293    0.0000 H   0  0  0  0  0  0  0  0  0  0  0  0
   33.7854   -7.9536    0.0000 H   0  0  0  0  0  0  0  0  0  0  0  0
  1  9  1  0  0  0  0
  1 13  1  0  0  0  0
 10  2  1  1  0  0  0
  2 15  1  0  0  0  0
 11  3  1  6  0  0  0
  3 16  1  0  0  0  0
 12  4  1  1  0  0  0
  4 19  1  0  0  0  0
  5 14  1  0  0  0  0
  5 83  1  0  0  0  0
  6 15  2  0  0  0  0
  7 16  2  0  0  0  0
  8 19  2  0  0  0  0
  9 10  1  0  0  0  0
  9 12  1  0  0  0  0
  9 63  1  6  0  0  0
 10 11  1  0  0  0  0
 10 64  1  0  0  0  0
 11 13  1  0  0  0  0
 11 65  1  0  0  0  0
 12 14  1  0  0  0  0
 12 66  1  0  0  0  0
 13 67  1  0  0  0  0
 13 68  1  0  0  0  0
 14 69  1  0  0  0  0
 14 70  1  0  0  0  0
 15 17  1  0  0  0  0
 16 18  1  0  0  0  0
 17 20  1  0  0  0  0
 17 71  1  0  0  0  0
 17 72  1  0  0  0  0
 18 21  1  0  0  0  0
 18 73  1  0  0  0  0
 18 74  1  0  0  0  0
 19 22  1  0  0  0  0
 20 23  1  0  0  0  0
 20 75  1  0  0  0  0
 20 76  1  0  0  0  0
 21 24  1  0  0  0  0
 21 77  1  0  0  0  0
 21 78  1  0  0  0  0
 22 25  1  0  0  0  0
 22 79  1  0  0  0  0
 22 80  1  0  0  0  0
 23 26  1  0  0  0  0
 23 81  1  0  0  0  0
 23 82  1  0  0  0  0
 24 27  1  0  0  0  0
 24 84  1  0  0  0  0
 24 85  1  0  0  0  0
 25 28  1  0  0  0  0
 25 86  1  0  0  0  0
 25 87  1  0  0  0  0
 26 29  1  0  0  0  0
 26 88  1  0  0  0  0
 26 89  1  0  0  0  0
 27 30  1  0  0  0  0
 27 90  1  0  0  0  0
 27 91  1  0  0  0  0
 28 31  1  0  0  0  0
 28 92  1  0  0  0  0
 28 93  1  0  0  0  0
 29 32  1  0  0  0  0
 29 94  1  0  0  0  0
 29 95  1  0  0  0  0
 30 33  1  0  0  0  0
 30 96  1  0  0  0  0
 30 97  1  0  0  0  0
 31 34  1  0  0  0  0
 31 98  1  0  0  0  0
 31 99  1  0  0  0  0
 32 35  1  0  0  0  0
 32100  1  0  0  0  0
 32101  1  0  0  0  0
 33 37  1  0  0  0  0
 33102  1  0  0  0  0
 33103  1  0  0  0  0
 34 36  1  0  0  0  0
 34104  1  0  0  0  0
 34105  1  0  0  0  0
 35 38  1  0  0  0  0
 35106  1  0  0  0  0
 35107  1  0  0  0  0
 36 39  1  0  0  0  0
 36108  1  0  0  0  0
 36109  1  0  0  0  0
 37 40  1  0  0  0  0
 37110  1  0  0  0  0
 37111  1  0  0  0  0
 38 42  1  0  0  0  0
 38112  1  0  0  0  0
 38113  1  0  0  0  0
 39 41  1  0  0  0  0
 39114  1  0  0  0  0
 39115  1  0  0  0  0
 40 43  1  0  0  0  0
 40116  1  0  0  0  0
 40117  1  0  0  0  0
 41 44  1  0  0  0  0
 41118  1  0  0  0  0
 41119  1  0  0  0  0
 42 45  1  0  0  0  0
 42120  1  0  0  0  0
 42121  1  0  0  0  0
 43 46  1  0  0  0  0
 43122  1  0  0  0  0
 43123  1  0  0  0  0
 44 47  1  0  0  0  0
 44124  1  0  0  0  0
 44125  1  0  0  0  0
 45 48  1  0  0  0  0
 45126  1  0  0  0  0
 45127  1  0  0  0  0
 46 49  1  0  0  0  0
 46128  1  0  0  0  0
 46129  1  0  0  0  0
 47 50  1  0  0  0  0
 47130  1  0  0  0  0
 47131  1  0  0  0  0
 48 51  1  0  0  0  0
 48132  1  0  0  0  0
 48133  1  0  0  0  0
 49 52  1  0  0  0  0
 49134  1  0  0  0  0
 49135  1  0  0  0  0
 50 53  1  0  0  0  0
 50136  1  0  0  0  0
 50137  1  0  0  0  0
 51 54  1  0  0  0  0
 51138  1  0  0  0  0
 51139  1  0  0  0  0
 52 55  1  0  0  0  0
 52140  1  0  0  0  0
 52141  1  0  0  0  0
 53 56  1  0  0  0  0
 53142  1  0  0  0  0
 53143  1  0  0  0  0
 54 57  1  0  0  0  0
 54144  1  0  0  0  0
 54145  1  0  0  0  0
 55 58  1  0  0  0  0
 55146  1  0  0  0  0
 55147  1  0  0  0  0
 56 59  1  0  0  0  0
 56148  1  0  0  0  0
 56149  1  0  0  0  0
 57 60  1  0  0  0  0
 57150  1  0  0  0  0
 57151  1  0  0  0  0
 58 61  1  0  0  0  0
 58152  1  0  0  0  0
 58153  1  0  0  0  0
 59 62  1  0  0  0  0
 59154  1  0  0  0  0
 59155  1  0  0  0  0
 60156  1  0  0  0  0
 60157  1  0  0  0  0
 60158  1  0  0  0  0
 61159  1  0  0  0  0
 61160  1  0  0  0  0
 61161  1  0  0  0  0
 62162  1  0  0  0  0
 62163  1  0  0  0  0
 62164  1  0  0  0  0
M  END
> <PUBCHEM_COMPOUND_CID>
171319

> <PUBCHEM_COMPOUND_CANONICALIZED>
1

> <PUBCHEM_CACTVS_COMPLEXITY>
1000

> <PUBCHEM_CACTVS_HBOND_ACCEPTOR>
8

> <PUBCHEM_CACTVS_HBOND_DONOR>
1

> <PUBCHEM_CACTVS_ROTATABLE_BOND>
50

> <PUBCHEM_CACTVS_SUBSKEYS>
AAADcfB8PAAAAAAAAAAAAAAAAAAAASAAAAAAAAAAAAAAAAAAAAAAGgAACAAACBSggAICCAAABgAIAACQCAAAAAAAAAAAAAEAAAABEBIAAAACQAAFAAADAAHI6KyAAAAAAAAAAAAAAAAAAAAAAAAAAAAAAA==

> <PUBCHEM_IUPAC_OPENEYE_NAME>
[(3S,4R,5R)-4-hexadecanoyloxy-5-[(1R)-1-hexadecanoyloxy-2-hydroxy-ethyl]tetrahydrofuran-3-yl] hexadecanoate

> <PUBCHEM_IUPAC_CAS_NAME>
hexadecanoic acid [(3S,4R,5R)-5-[(1R)-2-hydroxy-1-(1-oxohexadecoxy)ethyl]-4-(1-oxohexadecoxy)-3-oxolanyl] ester

> <PUBCHEM_IUPAC_NAME_MARKUP>
[(3<I>S</I>,4<I>R</I>,5<I>R</I>)-4-hexadecanoyloxy-5-[(1<I>R</I>)-1-hexadecanoyloxy-2-hydroxyethyl]oxolan-3-yl] hexadecanoate

> <PUBCHEM_IUPAC_NAME>
[(3S,4R,5R)-4-hexadecanoyloxy-5-[(1R)-1-hexadecanoyloxy-2-hydroxyethyl]oxolan-3-yl] hexadecanoate

> <PUBCHEM_IUPAC_SYSTEMATIC_NAME>
[(3S,4R,5R)-4-hexadecanoyloxy-5-[(1R)-1-hexadecanoyloxy-2-oxidanyl-ethyl]oxolan-3-yl] hexadecanoate

> <PUBCHEM_IUPAC_TRADITIONAL_NAME>
palmitic acid [(3S,4R,5R)-4-hexadecanoyloxy-5-[(1R)-1-hexadecanoyloxy-2-hydroxy-ethyl]tetrahydrofuran-3-yl] ester

> <PUBCHEM_IUPAC_INCHI>
InChI=1S/C54H102O8/c1-4-7-10-13-16-19-22-25-28-31-34-37-40-43-50(56)60-48(46-55)53-54(62-52(58)45-42-39-36-33-30-27-24-21-18-15-12-9-6-3)49(47-59-53)61-51(57)44-41-38-35-32-29-26-23-20-17-14-11-8-5-2/h48-49,53-55H,4-47H2,1-3H3/t48-,49+,53-,54-/m1/s1

> <PUBCHEM_IUPAC_INCHIKEY>
NVANJYGRGNEULT-BDZGGURLSA-N

> <PUBCHEM_XLOGP3_AA>
21.1

> <PUBCHEM_EXACT_MASS>
878.75747021

> <PUBCHEM_MOLECULAR_FORMULA>
C54H102O8

> <PUBCHEM_MOLECULAR_WEIGHT>
879.4

> <PUBCHEM_SMILES>
CCCCCCCCCCCCCCCC(=O)O[C@H]1CO[C@@H]([C@@H]1OC(=O)CCCCCCCCCCCCCCC)[C@@H](CO)OC(=O)CCCCCCCCCCCCCCC

> <PUBCHEM_OPENEYE_CAN_SMILES>
CCCCCCCCCCCCCCCC(=O)OC1COC(C1OC(=O)CCCCCCCCCCCCCCC)C(CO)OC(=O)CCCCCCCCCCCCCCC

> <PUBCHEM_OPENEYE_ISO_SMILES>
CCCCCCCCCCCCCCCC(=O)O[C@H]1CO[C@@H]([C@@H]1OC(=O)CCCCCCCCCCCCCCC)[C@@H](CO)OC(=O)CCCCCCCCCCCCCCC

> <PUBCHEM_CACTVS_TPSA>
108

> <PUBCHEM_MONOISOTOPIC_WEIGHT>
878.75747021

> <PUBCHEM_TOTAL_CHARGE>
0

> <PUBCHEM_HEAVY_ATOM_COUNT>
62

> <PUBCHEM_ATOM_DEF_STEREO_COUNT>
4

> <PUBCHEM_ATOM_UDEF_STEREO_COUNT>
0

> <PUBCHEM_BOND_DEF_STEREO_COUNT>
0

> <PUBCHEM_BOND_UDEF_STEREO_COUNT>
0

> <PUBCHEM_ISOTOPIC_ATOM_COUNT>
0

> <PUBCHEM_COMPONENT_COUNT>
1

> <PUBCHEM_CACTVS_TAUTO_COUNT>
-1

> <PUBCHEM_COORDINATE_TYPE>
1
5
255

> <PUBCHEM_BONDANNOTATIONS>
10  2  5
11  3  6
12  4  5
9  63  6

$$$$
