171598
  -OEChem-04042513082D

126130  0     0  0  0  0  0  0999 V2000
    4.5981    2.5000    0.0000 O   0  0  0  0  0  0  0  0  0  0  0  0
    4.5981   -2.5000    0.0000 O   0  0  0  0  0  0  0  0  0  0  0  0
    8.0622    2.5000    0.0000 O   0  0  0  0  0  0  0  0  0  0  0  0
    8.0622   -2.5000    0.0000 O   0  0  0  0  0  0  0  0  0  0  0  0
    6.3301    2.5000    0.0000 O   0  0  0  0  0  0  0  0  0  0  0  0
    6.3301   -2.5000    0.0000 O   0  0  0  0  0  0  0  0  0  0  0  0
    2.8660    3.5000    0.0000 C   0  0  0  0  0  0  0  0  0  0  0  0
    2.8660   -3.5000    0.0000 C   0  0  0  0  0  0  0  0  0  0  0  0
    9.7942    3.5000    0.0000 C   0  0  0  0  0  0  0  0  0  0  0  0
    9.7942   -3.5000    0.0000 C   0  0  0  0  0  0  0  0  0  0  0  0
    3.7320    4.0000    0.0000 C   0  0  0  0  0  0  0  0  0  0  0  0
    3.7320   -4.0000    0.0000 C   0  0  0  0  0  0  0  0  0  0  0  0
    8.9282    4.0000    0.0000 C   0  0  0  0  0  0  0  0  0  0  0  0
    8.9282   -4.0000    0.0000 C   0  0  0  0  0  0  0  0  0  0  0  0
    5.4641    4.0000    0.0000 C   0  0  0  0  0  0  0  0  0  0  0  0
    5.4641   -4.0000    0.0000 C   0  0  0  0  0  0  0  0  0  0  0  0
    6.3301    3.5000    0.0000 C   0  0  0  0  0  0  0  0  0  0  0  0
    6.3301   -3.5000    0.0000 C   0  0  0  0  0  0  0  0  0  0  0  0
    4.5981    3.5000    0.0000 C   0  0  0  0  0  0  0  0  0  0  0  0
    4.5981   -3.5000    0.0000 C   0  0  0  0  0  0  0  0  0  0  0  0
    7.1962    4.0000    0.0000 C   0  0  0  0  0  0  0  0  0  0  0  0
    7.1962   -4.0000    0.0000 C   0  0  0  0  0  0  0  0  0  0  0  0
    8.0622    3.5000    0.0000 C   0  0  0  0  0  0  0  0  0  0  0  0
    8.0622   -3.5000    0.0000 C   0  0  0  0  0  0  0  0  0  0  0  0
    2.3660    4.3660    0.0000 C   0  0  0  0  0  0  0  0  0  0  0  0
    2.0000    3.0000    0.0000 C   0  0  0  0  0  0  0  0  0  0  0  0
    3.3660    2.6340    0.0000 C   0  0  0  0  0  0  0  0  0  0  0  0
    2.0000   -3.0000    0.0000 C   0  0  0  0  0  0  0  0  0  0  0  0
    2.3660   -4.3660    0.0000 C   0  0  0  0  0  0  0  0  0  0  0  0
    3.3660   -2.6340    0.0000 C   0  0  0  0  0  0  0  0  0  0  0  0
    3.7320    5.0000    0.0000 C   0  0  0  0  0  0  0  0  0  0  0  0
    3.7320   -5.0000    0.0000 C   0  0  0  0  0  0  0  0  0  0  0  0
   10.6603    3.0000    0.0000 C   0  0  0  0  0  0  0  0  0  0  0  0
   10.2942    4.3660    0.0000 C   0  0  0  0  0  0  0  0  0  0  0  0
    9.2942    2.6340    0.0000 C   0  0  0  0  0  0  0  0  0  0  0  0
   10.6603   -3.0000    0.0000 C   0  0  0  0  0  0  0  0  0  0  0  0
   10.2942   -4.3660    0.0000 C   0  0  0  0  0  0  0  0  0  0  0  0
    9.2942   -2.6340    0.0000 C   0  0  0  0  0  0  0  0  0  0  0  0
    8.9282    5.0000    0.0000 C   0  0  0  0  0  0  0  0  0  0  0  0
    8.9282   -5.0000    0.0000 C   0  0  0  0  0  0  0  0  0  0  0  0
    4.5981    5.5000    0.0000 C   0  0  0  0  0  0  0  0  0  0  0  0
    4.5981   -5.5000    0.0000 C   0  0  0  0  0  0  0  0  0  0  0  0
    5.4641    5.0000    0.0000 C   0  0  0  0  0  0  0  0  0  0  0  0
    5.4641   -5.0000    0.0000 C   0  0  0  0  0  0  0  0  0  0  0  0
    7.1962    5.0000    0.0000 C   0  0  0  0  0  0  0  0  0  0  0  0
    7.1962   -5.0000    0.0000 C   0  0  0  0  0  0  0  0  0  0  0  0
    8.0622    5.5000    0.0000 C   0  0  0  0  0  0  0  0  0  0  0  0
    8.0622   -5.5000    0.0000 C   0  0  0  0  0  0  0  0  0  0  0  0
    4.5981    6.5000    0.0000 C   0  0  0  0  0  0  0  0  0  0  0  0
    4.5981   -6.5000    0.0000 C   0  0  0  0  0  0  0  0  0  0  0  0
    8.0622    6.5000    0.0000 C   0  0  0  0  0  0  0  0  0  0  0  0
    8.0622   -6.5000    0.0000 C   0  0  0  0  0  0  0  0  0  0  0  0
    5.4641    2.0000    0.0000 C   0  0  0  0  0  0  0  0  0  0  0  0
    5.4641   -2.0000    0.0000 C   0  0  0  0  0  0  0  0  0  0  0  0
    5.4641    1.0000    0.0000 C   0  0  0  0  0  0  0  0  0  0  0  0
    5.4641   -1.0000    0.0000 C   0  0  0  0  0  0  0  0  0  0  0  0
    4.5981    0.5000    0.0000 C   0  0  0  0  0  0  0  0  0  0  0  0
    4.5981   -0.5000    0.0000 C   0  0  0  0  0  0  0  0  0  0  0  0
    6.3301    0.5000    0.0000 C   0  0  0  0  0  0  0  0  0  0  0  0
    6.3301   -0.5000    0.0000 C   0  0  0  0  0  0  0  0  0  0  0  0
    5.9316    3.0250    0.0000 H   0  0  0  0  0  0  0  0  0  0  0  0
    6.7287    3.0250    0.0000 H   0  0  0  0  0  0  0  0  0  0  0  0
    6.7287   -3.0250    0.0000 H   0  0  0  0  0  0  0  0  0  0  0  0
    5.9316   -3.0250    0.0000 H   0  0  0  0  0  0  0  0  0  0  0  0
    2.9030    4.6760    0.0000 H   0  0  0  0  0  0  0  0  0  0  0  0
    2.0560    4.9030    0.0000 H   0  0  0  0  0  0  0  0  0  0  0  0
    1.8291    4.0560    0.0000 H   0  0  0  0  0  0  0  0  0  0  0  0
    1.6900    3.5369    0.0000 H   0  0  0  0  0  0  0  0  0  0  0  0
    1.4631    2.6900    0.0000 H   0  0  0  0  0  0  0  0  0  0  0  0
    2.3100    2.4631    0.0000 H   0  0  0  0  0  0  0  0  0  0  0  0
    2.8291    2.3240    0.0000 H   0  0  0  0  0  0  0  0  0  0  0  0
    3.6760    2.0970    0.0000 H   0  0  0  0  0  0  0  0  0  0  0  0
    3.9030    2.9440    0.0000 H   0  0  0  0  0  0  0  0  0  0  0  0
    2.3100   -2.4631    0.0000 H   0  0  0  0  0  0  0  0  0  0  0  0
    1.4631   -2.6900    0.0000 H   0  0  0  0  0  0  0  0  0  0  0  0
    1.6900   -3.5369    0.0000 H   0  0  0  0  0  0  0  0  0  0  0  0
    1.8291   -4.0560    0.0000 H   0  0  0  0  0  0  0  0  0  0  0  0
    2.0560   -4.9030    0.0000 H   0  0  0  0  0  0  0  0  0  0  0  0
    2.9030   -4.6760    0.0000 H   0  0  0  0  0  0  0  0  0  0  0  0
    3.9030   -2.9440    0.0000 H   0  0  0  0  0  0  0  0  0  0  0  0
    3.6760   -2.0970    0.0000 H   0  0  0  0  0  0  0  0  0  0  0  0
    2.8291   -2.3240    0.0000 H   0  0  0  0  0  0  0  0  0  0  0  0
    3.1951    5.3100    0.0000 H   0  0  0  0  0  0  0  0  0  0  0  0
    3.1951   -5.3100    0.0000 H   0  0  0  0  0  0  0  0  0  0  0  0
   10.3503    2.4631    0.0000 H   0  0  0  0  0  0  0  0  0  0  0  0
   11.1972    2.6900    0.0000 H   0  0  0  0  0  0  0  0  0  0  0  0
   10.9703    3.5369    0.0000 H   0  0  0  0  0  0  0  0  0  0  0  0
   10.8312    4.0560    0.0000 H   0  0  0  0  0  0  0  0  0  0  0  0
   10.6042    4.9030    0.0000 H   0  0  0  0  0  0  0  0  0  0  0  0
    9.7573    4.6760    0.0000 H   0  0  0  0  0  0  0  0  0  0  0  0
    8.7573    2.9440    0.0000 H   0  0  0  0  0  0  0  0  0  0  0  0
    8.9842    2.0970    0.0000 H   0  0  0  0  0  0  0  0  0  0  0  0
    9.8312    2.3240    0.0000 H   0  0  0  0  0  0  0  0  0  0  0  0
   10.9703   -3.5369    0.0000 H   0  0  0  0  0  0  0  0  0  0  0  0
   11.1972   -2.6900    0.0000 H   0  0  0  0  0  0  0  0  0  0  0  0
   10.3503   -2.4631    0.0000 H   0  0  0  0  0  0  0  0  0  0  0  0
    9.7573   -4.6760    0.0000 H   0  0  0  0  0  0  0  0  0  0  0  0
   10.6042   -4.9030    0.0000 H   0  0  0  0  0  0  0  0  0  0  0  0
   10.8312   -4.0560    0.0000 H   0  0  0  0  0  0  0  0  0  0  0  0
    9.8312   -2.3240    0.0000 H   0  0  0  0  0  0  0  0  0  0  0  0
    8.9842   -2.0970    0.0000 H   0  0  0  0  0  0  0  0  0  0  0  0
    8.7573   -2.9440    0.0000 H   0  0  0  0  0  0  0  0  0  0  0  0
    9.4651    5.3100    0.0000 H   0  0  0  0  0  0  0  0  0  0  0  0
    9.4651   -5.3100    0.0000 H   0  0  0  0  0  0  0  0  0  0  0  0
    6.0010    5.3100    0.0000 H   0  0  0  0  0  0  0  0  0  0  0  0
    6.0010   -5.3100    0.0000 H   0  0  0  0  0  0  0  0  0  0  0  0
    6.6592    5.3100    0.0000 H   0  0  0  0  0  0  0  0  0  0  0  0
    6.6592   -5.3100    0.0000 H   0  0  0  0  0  0  0  0  0  0  0  0
    5.2181    6.5000    0.0000 H   0  0  0  0  0  0  0  0  0  0  0  0
    4.5981    7.1200    0.0000 H   0  0  0  0  0  0  0  0  0  0  0  0
    3.9781    6.5000    0.0000 H   0  0  0  0  0  0  0  0  0  0  0  0
    3.9781   -6.5000    0.0000 H   0  0  0  0  0  0  0  0  0  0  0  0
    4.5981   -7.1200    0.0000 H   0  0  0  0  0  0  0  0  0  0  0  0
    5.2181   -6.5000    0.0000 H   0  0  0  0  0  0  0  0  0  0  0  0
    8.6822    6.5000    0.0000 H   0  0  0  0  0  0  0  0  0  0  0  0
    8.0622    7.1200    0.0000 H   0  0  0  0  0  0  0  0  0  0  0  0
    7.4422    6.5000    0.0000 H   0  0  0  0  0  0  0  0  0  0  0  0
    7.4422   -6.5000    0.0000 H   0  0  0  0  0  0  0  0  0  0  0  0
    8.0622   -7.1200    0.0000 H   0  0  0  0  0  0  0  0  0  0  0  0
    8.6822   -6.5000    0.0000 H   0  0  0  0  0  0  0  0  0  0  0  0
    7.5252    2.1900    0.0000 H   0  0  0  0  0  0  0  0  0  0  0  0
    8.5991   -2.1900    0.0000 H   0  0  0  0  0  0  0  0  0  0  0  0
    4.0611    0.8100    0.0000 H   0  0  0  0  0  0  0  0  0  0  0  0
    4.0611   -0.8100    0.0000 H   0  0  0  0  0  0  0  0  0  0  0  0
    6.8671    0.8100    0.0000 H   0  0  0  0  0  0  0  0  0  0  0  0
    6.8671   -0.8100    0.0000 H   0  0  0  0  0  0  0  0  0  0  0  0
  1 19  1  0  0  0  0
  1 53  1  0  0  0  0
  2 20  1  0  0  0  0
  2 54  1  0  0  0  0
  3 23  1  0  0  0  0
  3121  1  0  0  0  0
  4 24  1  0  0  0  0
  4122  1  0  0  0  0
  5 53  2  0  0  0  0
  6 54  2  0  0  0  0
  7 11  1  0  0  0  0
  7 25  1  0  0  0  0
  7 26  1  0  0  0  0
  7 27  1  0  0  0  0
  8 12  1  0  0  0  0
  8 28  1  0  0  0  0
  8 29  1  0  0  0  0
  8 30  1  0  0  0  0
  9 13  1  0  0  0  0
  9 33  1  0  0  0  0
  9 34  1  0  0  0  0
  9 35  1  0  0  0  0
 10 14  1  0  0  0  0
 10 36  1  0  0  0  0
 10 37  1  0  0  0  0
 10 38  1  0  0  0  0
 11 19  1  0  0  0  0
 11 31  2  0  0  0  0
 12 20  1  0  0  0  0
 12 32  2  0  0  0  0
 13 23  1  0  0  0  0
 13 39  2  0  0  0  0
 14 24  1  0  0  0  0
 14 40  2  0  0  0  0
 15 17  1  0  0  0  0
 15 19  2  0  0  0  0
 15 43  1  0  0  0  0
 16 18  1  0  0  0  0
 16 20  2  0  0  0  0
 16 44  1  0  0  0  0
 17 21  1  0  0  0  0
 17 61  1  0  0  0  0
 17 62  1  0  0  0  0
 18 22  1  0  0  0  0
 18 63  1  0  0  0  0
 18 64  1  0  0  0  0
 21 23  2  0  0  0  0
 21 45  1  0  0  0  0
 22 24  2  0  0  0  0
 22 46  1  0  0  0  0
 25 65  1  0  0  0  0
 25 66  1  0  0  0  0
 25 67  1  0  0  0  0
 26 68  1  0  0  0  0
 26 69  1  0  0  0  0
 26 70  1  0  0  0  0
 27 71  1  0  0  0  0
 27 72  1  0  0  0  0
 27 73  1  0  0  0  0
 28 74  1  0  0  0  0
 28 75  1  0  0  0  0
 28 76  1  0  0  0  0
 29 77  1  0  0  0  0
 29 78  1  0  0  0  0
 29 79  1  0  0  0  0
 30 80  1  0  0  0  0
 30 81  1  0  0  0  0
 30 82  1  0  0  0  0
 31 41  1  0  0  0  0
 31 83  1  0  0  0  0
 32 42  1  0  0  0  0
 32 84  1  0  0  0  0
 33 85  1  0  0  0  0
 33 86  1  0  0  0  0
 33 87  1  0  0  0  0
 34 88  1  0  0  0  0
 34 89  1  0  0  0  0
 34 90  1  0  0  0  0
 35 91  1  0  0  0  0
 35 92  1  0  0  0  0
 35 93  1  0  0  0  0
 36 94  1  0  0  0  0
 36 95  1  0  0  0  0
 36 96  1  0  0  0  0
 37 97  1  0  0  0  0
 37 98  1  0  0  0  0
 37 99  1  0  0  0  0
 38100  1  0  0  0  0
 38101  1  0  0  0  0
 38102  1  0  0  0  0
 39 47  1  0  0  0  0
 39103  1  0  0  0  0
 40 48  1  0  0  0  0
 40104  1  0  0  0  0
 41 43  2  0  0  0  0
 41 49  1  0  0  0  0
 42 44  2  0  0  0  0
 42 50  1  0  0  0  0
 43105  1  0  0  0  0
 44106  1  0  0  0  0
 45 47  2  0  0  0  0
 45107  1  0  0  0  0
 46 48  2  0  0  0  0
 46108  1  0  0  0  0
 47 51  1  0  0  0  0
 48 52  1  0  0  0  0
 49109  1  0  0  0  0
 49110  1  0  0  0  0
 49111  1  0  0  0  0
 50112  1  0  0  0  0
 50113  1  0  0  0  0
 50114  1  0  0  0  0
 51115  1  0  0  0  0
 51116  1  0  0  0  0
 51117  1  0  0  0  0
 52118  1  0  0  0  0
 52119  1  0  0  0  0
 52120  1  0  0  0  0
 53 55  1  0  0  0  0
 54 56  1  0  0  0  0
 55 57  2  0  0  0  0
 55 59  1  0  0  0  0
 56 58  2  0  0  0  0
 56 60  1  0  0  0  0
 57 58  1  0  0  0  0
 57123  1  0  0  0  0
 58124  1  0  0  0  0
 59 60  2  0  0  0  0
 59125  1  0  0  0  0
 60126  1  0  0  0  0
M  END
> <PUBCHEM_COMPOUND_CID>
171598

> <PUBCHEM_COMPOUND_CANONICALIZED>
1

> <PUBCHEM_CACTVS_COMPLEXITY>
1290

> <PUBCHEM_CACTVS_HBOND_ACCEPTOR>
6

> <PUBCHEM_CACTVS_HBOND_DONOR>
2

> <PUBCHEM_CACTVS_ROTATABLE_BOND>
14

> <PUBCHEM_CACTVS_SUBSKEYS>
AAADcfB8OAAAAAAAAAAAAAAAAAAAAAAAAAAwYMGDAAAAAAABVAAAGgAACAAADgSAmAAyDoAABgCIAiDSCAACCAAkIAAIiAEECMgMJjKGNRqCeyCkwBEIuYeI6PyP4AACAAAIAADAAAQAABAAAAAAAAAAAA==

> <PUBCHEM_IUPAC_OPENEYE_NAME>
bis[2-tert-butyl-6-[(3-tert-butyl-2-hydroxy-5-methyl-phenyl)methyl]-4-methyl-phenyl] benzene-1,4-dicarboxylate

> <PUBCHEM_IUPAC_CAS_NAME>
benzene-1,4-dicarboxylic acid bis[2-tert-butyl-6-[(3-tert-butyl-2-hydroxy-5-methylphenyl)methyl]-4-methylphenyl] ester

> <PUBCHEM_IUPAC_NAME_MARKUP>
bis[2-<I>tert</I>-butyl-6-[(3-<I>tert</I>-butyl-2-hydroxy-5-methylphenyl)methyl]-4-methylphenyl] benzene-1,4-dicarboxylate

> <PUBCHEM_IUPAC_NAME>
bis[2-tert-butyl-6-[(3-tert-butyl-2-hydroxy-5-methylphenyl)methyl]-4-methylphenyl] benzene-1,4-dicarboxylate

> <PUBCHEM_IUPAC_SYSTEMATIC_NAME>
bis[2-tert-butyl-6-[(3-tert-butyl-5-methyl-2-oxidanyl-phenyl)methyl]-4-methyl-phenyl] benzene-1,4-dicarboxylate

> <PUBCHEM_IUPAC_TRADITIONAL_NAME>
benzene-1,4-dicarboxylic acid bis[2-tert-butyl-6-(3-tert-butyl-2-hydroxy-5-methyl-benzyl)-4-methyl-phenyl] ester

> <PUBCHEM_IUPAC_INCHI>
InChI=1S/C54H66O6/c1-31-21-37(45(55)41(25-31)51(5,6)7)29-39-23-33(3)27-43(53(11,12)13)47(39)59-49(57)35-17-19-36(20-18-35)50(58)60-48-40(24-34(4)28-44(48)54(14,15)16)30-38-22-32(2)26-42(46(38)56)52(8,9)10/h17-28,55-56H,29-30H2,1-16H3

> <PUBCHEM_IUPAC_INCHIKEY>
JWXSMZJIYUUXSV-UHFFFAOYSA-N

> <PUBCHEM_XLOGP3_AA>
16

> <PUBCHEM_EXACT_MASS>
810.48593982

> <PUBCHEM_MOLECULAR_FORMULA>
C54H66O6

> <PUBCHEM_MOLECULAR_WEIGHT>
811.1

> <PUBCHEM_SMILES>
CC1=CC(=C(C(=C1)C(C)(C)C)O)CC2=C(C(=CC(=C2)C)C(C)(C)C)OC(=O)C3=CC=C(C=C3)C(=O)OC4=C(C=C(C=C4C(C)(C)C)C)CC5=C(C(=CC(=C5)C)C(C)(C)C)O

> <PUBCHEM_OPENEYE_CAN_SMILES>
CC1=CC(=C(C(=C1)C(C)(C)C)O)CC2=C(C(=CC(=C2)C)C(C)(C)C)OC(=O)C3=CC=C(C=C3)C(=O)OC4=C(C=C(C=C4C(C)(C)C)C)CC5=C(C(=CC(=C5)C)C(C)(C)C)O

> <PUBCHEM_OPENEYE_ISO_SMILES>
CC1=CC(=C(C(=C1)C(C)(C)C)O)CC2=C(C(=CC(=C2)C)C(C)(C)C)OC(=O)C3=CC=C(C=C3)C(=O)OC4=C(C=C(C=C4C(C)(C)C)C)CC5=C(C(=CC(=C5)C)C(C)(C)C)O

> <PUBCHEM_CACTVS_TPSA>
93.1

> <PUBCHEM_MONOISOTOPIC_WEIGHT>
810.48593982

> <PUBCHEM_TOTAL_CHARGE>
0

> <PUBCHEM_HEAVY_ATOM_COUNT>
60

> <PUBCHEM_ATOM_DEF_STEREO_COUNT>
0

> <PUBCHEM_ATOM_UDEF_STEREO_COUNT>
0

> <PUBCHEM_BOND_DEF_STEREO_COUNT>
0

> <PUBCHEM_BOND_UDEF_STEREO_COUNT>
0

> <PUBCHEM_ISOTOPIC_ATOM_COUNT>
0

> <PUBCHEM_COMPONENT_COUNT>
1

> <PUBCHEM_CACTVS_TAUTO_COUNT>
-1

> <PUBCHEM_COORDINATE_TYPE>
1
5
255

> <PUBCHEM_BONDANNOTATIONS>
11  19  8
11  31  8
12  20  8
12  32  8
13  23  8
13  39  8
14  24  8
14  40  8
15  19  8
15  43  8
16  20  8
16  44  8
21  23  8
21  45  8
22  24  8
22  46  8
31  41  8
32  42  8
39  47  8
40  48  8
41  43  8
42  44  8
45  47  8
46  48  8
55  57  8
55  59  8
56  58  8
56  60  8
57  58  8
59  60  8

$$$$
