18725
  -OEChem-04042512372D

 93 93  0     1  0  0  0  0  0999 V2000
   10.6603    2.2500    0.0000 O   0  0  0  0  0  0  0  0  0  0  0  0
    7.1962    0.2500    0.0000 O   0  0  0  0  0  0  0  0  0  0  0  0
   11.5263   -2.2500    0.0000 O   0  0  0  0  0  0  0  0  0  0  0  0
    8.9282    2.2500    0.0000 O   0  0  0  0  0  0  0  0  0  0  0  0
    8.0622    1.7500    0.0000 O   0  0  0  0  0  0  0  0  0  0  0  0
   12.3923   -0.7500    0.0000 O   0  0  0  0  0  0  0  0  0  0  0  0
   11.5263    3.7500    0.0000 C   0  0  3  0  0  0  0  0  0  0  0  0
    5.4641    0.2500    0.0000 C   0  0  3  0  0  0  0  0  0  0  0  0
   12.3923   -3.7500    0.0000 C   0  0  3  0  0  0  0  0  0  0  0  0
   11.5263    4.7500    0.0000 C   0  0  0  0  0  0  0  0  0  0  0  0
    4.5981    0.7500    0.0000 C   0  0  0  0  0  0  0  0  0  0  0  0
   13.2583   -4.2500    0.0000 C   0  0  0  0  0  0  0  0  0  0  0  0
   12.3923    3.2500    0.0000 C   0  0  0  0  0  0  0  0  0  0  0  0
    5.4641   -0.7500    0.0000 C   0  0  0  0  0  0  0  0  0  0  0  0
   11.5263   -4.2500    0.0000 C   0  0  0  0  0  0  0  0  0  0  0  0
   12.3923    5.2500    0.0000 C   0  0  0  0  0  0  0  0  0  0  0  0
    3.7320    0.2500    0.0000 C   0  0  0  0  0  0  0  0  0  0  0  0
   13.2583   -5.2500    0.0000 C   0  0  0  0  0  0  0  0  0  0  0  0
   10.6603    3.2500    0.0000 C   0  0  0  0  0  0  0  0  0  0  0  0
    6.3301    0.7500    0.0000 C   0  0  0  0  0  0  0  0  0  0  0  0
   12.3923   -2.7500    0.0000 C   0  0  0  0  0  0  0  0  0  0  0  0
   12.3923    6.2500    0.0000 C   0  0  0  0  0  0  0  0  0  0  0  0
    2.8660    0.7500    0.0000 C   0  0  0  0  0  0  0  0  0  0  0  0
   14.1244   -5.7500    0.0000 C   0  0  0  0  0  0  0  0  0  0  0  0
   13.2583    3.7500    0.0000 C   0  0  0  0  0  0  0  0  0  0  0  0
    4.5981   -1.2500    0.0000 C   0  0  0  0  0  0  0  0  0  0  0  0
   11.5263   -5.2500    0.0000 C   0  0  0  0  0  0  0  0  0  0  0  0
   13.2583    6.7500    0.0000 C   0  0  0  0  0  0  0  0  0  0  0  0
    2.0000    0.2500    0.0000 C   0  0  0  0  0  0  0  0  0  0  0  0
   14.1244   -6.7500    0.0000 C   0  0  0  0  0  0  0  0  0  0  0  0
    9.7942    0.7500    0.0000 C   0  0  0  0  0  0  0  0  0  0  0  0
    8.9282    0.2500    0.0000 C   0  0  0  0  0  0  0  0  0  0  0  0
    9.7942    1.7500    0.0000 C   0  0  0  0  0  0  0  0  0  0  0  0
    8.0622    0.7500    0.0000 C   0  0  0  0  0  0  0  0  0  0  0  0
   10.6603   -0.7500    0.0000 C   0  0  0  0  0  0  0  0  0  0  0  0
   11.5263   -1.2500    0.0000 C   0  0  0  0  0  0  0  0  0  0  0  0
   10.6603    0.2500    0.0000 C   0  0  0  0  0  0  0  0  0  0  0  0
    8.9282   -0.7500    0.0000 C   0  0  0  0  0  0  0  0  0  0  0  0
    9.7942   -1.2500    0.0000 C   0  0  0  0  0  0  0  0  0  0  0  0
   12.0632    4.0600    0.0000 H   0  0  0  0  0  0  0  0  0  0  0  0
    5.4641    0.8700    0.0000 H   0  0  0  0  0  0  0  0  0  0  0  0
   11.8554   -3.4400    0.0000 H   0  0  0  0  0  0  0  0  0  0  0  0
   11.3142    5.3326    0.0000 H   0  0  0  0  0  0  0  0  0  0  0  0
   10.9157    4.6423    0.0000 H   0  0  0  0  0  0  0  0  0  0  0  0
    4.9966    1.2250    0.0000 H   0  0  0  0  0  0  0  0  0  0  0  0
    4.1996    1.2250    0.0000 H   0  0  0  0  0  0  0  0  0  0  0  0
   13.8689   -4.3577    0.0000 H   0  0  0  0  0  0  0  0  0  0  0  0
   13.4704   -3.6674    0.0000 H   0  0  0  0  0  0  0  0  0  0  0  0
   11.9938    2.7750    0.0000 H   0  0  0  0  0  0  0  0  0  0  0  0
   12.7908    2.7750    0.0000 H   0  0  0  0  0  0  0  0  0  0  0  0
    5.6762   -1.3326    0.0000 H   0  0  0  0  0  0  0  0  0  0  0  0
    6.0747   -0.6423    0.0000 H   0  0  0  0  0  0  0  0  0  0  0  0
   11.3142   -3.6674    0.0000 H   0  0  0  0  0  0  0  0  0  0  0  0
   10.9157   -4.3577    0.0000 H   0  0  0  0  0  0  0  0  0  0  0  0
   12.6044    4.6674    0.0000 H   0  0  0  0  0  0  0  0  0  0  0  0
   13.0029    5.3577    0.0000 H   0  0  0  0  0  0  0  0  0  0  0  0
    3.3335   -0.2249    0.0000 H   0  0  0  0  0  0  0  0  0  0  0  0
    4.1306   -0.2249    0.0000 H   0  0  0  0  0  0  0  0  0  0  0  0
   12.6477   -5.1423    0.0000 H   0  0  0  0  0  0  0  0  0  0  0  0
   13.0463   -5.8326    0.0000 H   0  0  0  0  0  0  0  0  0  0  0  0
   10.4482    3.8326    0.0000 H   0  0  0  0  0  0  0  0  0  0  0  0
   10.0497    3.1423    0.0000 H   0  0  0  0  0  0  0  0  0  0  0  0
    6.7287    1.2250    0.0000 H   0  0  0  0  0  0  0  0  0  0  0  0
    5.9316    1.2250    0.0000 H   0  0  0  0  0  0  0  0  0  0  0  0
   13.0029   -2.8577    0.0000 H   0  0  0  0  0  0  0  0  0  0  0  0
   12.6044   -2.1674    0.0000 H   0  0  0  0  0  0  0  0  0  0  0  0
   12.1803    6.8326    0.0000 H   0  0  0  0  0  0  0  0  0  0  0  0
   11.7817    6.1423    0.0000 H   0  0  0  0  0  0  0  0  0  0  0  0
    3.2646    1.2250    0.0000 H   0  0  0  0  0  0  0  0  0  0  0  0
    2.4675    1.2250    0.0000 H   0  0  0  0  0  0  0  0  0  0  0  0
   14.7349   -5.8577    0.0000 H   0  0  0  0  0  0  0  0  0  0  0  0
   14.3364   -5.1674    0.0000 H   0  0  0  0  0  0  0  0  0  0  0  0
   13.5683    3.2131    0.0000 H   0  0  0  0  0  0  0  0  0  0  0  0
   13.7953    4.0600    0.0000 H   0  0  0  0  0  0  0  0  0  0  0  0
   12.9483    4.2869    0.0000 H   0  0  0  0  0  0  0  0  0  0  0  0
    4.2881   -0.7131    0.0000 H   0  0  0  0  0  0  0  0  0  0  0  0
    4.0611   -1.5600    0.0000 H   0  0  0  0  0  0  0  0  0  0  0  0
    4.9081   -1.7869    0.0000 H   0  0  0  0  0  0  0  0  0  0  0  0
   10.9063   -5.2500    0.0000 H   0  0  0  0  0  0  0  0  0  0  0  0
   11.5263   -5.8700    0.0000 H   0  0  0  0  0  0  0  0  0  0  0  0
   12.1463   -5.2500    0.0000 H   0  0  0  0  0  0  0  0  0  0  0  0
   13.5683    6.2131    0.0000 H   0  0  0  0  0  0  0  0  0  0  0  0
   13.7953    7.0600    0.0000 H   0  0  0  0  0  0  0  0  0  0  0  0
   12.9483    7.2869    0.0000 H   0  0  0  0  0  0  0  0  0  0  0  0
    1.6900    0.7869    0.0000 H   0  0  0  0  0  0  0  0  0  0  0  0
    1.4631   -0.0600    0.0000 H   0  0  0  0  0  0  0  0  0  0  0  0
    2.3100   -0.2869    0.0000 H   0  0  0  0  0  0  0  0  0  0  0  0
   13.5044   -6.7500    0.0000 H   0  0  0  0  0  0  0  0  0  0  0  0
   14.1244   -7.3700    0.0000 H   0  0  0  0  0  0  0  0  0  0  0  0
   14.7444   -6.7500    0.0000 H   0  0  0  0  0  0  0  0  0  0  0  0
   11.1972    0.5600    0.0000 H   0  0  0  0  0  0  0  0  0  0  0  0
    8.3913   -1.0600    0.0000 H   0  0  0  0  0  0  0  0  0  0  0  0
    9.7942   -1.8700    0.0000 H   0  0  0  0  0  0  0  0  0  0  0  0
  1 19  1  0  0  0  0
  1 33  1  0  0  0  0
  2 20  1  0  0  0  0
  2 34  1  0  0  0  0
  3 21  1  0  0  0  0
  3 36  1  0  0  0  0
  4 33  2  0  0  0  0
  5 34  2  0  0  0  0
  6 36  2  0  0  0  0
  7 10  1  0  0  0  0
  7 13  1  0  0  0  0
  7 19  1  0  0  0  0
  7 40  1  0  0  0  0
  8 11  1  0  0  0  0
  8 14  1  0  0  0  0
  8 20  1  0  0  0  0
  8 41  1  0  0  0  0
  9 12  1  0  0  0  0
  9 15  1  0  0  0  0
  9 21  1  0  0  0  0
  9 42  1  0  0  0  0
 10 16  1  0  0  0  0
 10 43  1  0  0  0  0
 10 44  1  0  0  0  0
 11 17  1  0  0  0  0
 11 45  1  0  0  0  0
 11 46  1  0  0  0  0
 12 18  1  0  0  0  0
 12 47  1  0  0  0  0
 12 48  1  0  0  0  0
 13 25  1  0  0  0  0
 13 49  1  0  0  0  0
 13 50  1  0  0  0  0
 14 26  1  0  0  0  0
 14 51  1  0  0  0  0
 14 52  1  0  0  0  0
 15 27  1  0  0  0  0
 15 53  1  0  0  0  0
 15 54  1  0  0  0  0
 16 22  1  0  0  0  0
 16 55  1  0  0  0  0
 16 56  1  0  0  0  0
 17 23  1  0  0  0  0
 17 57  1  0  0  0  0
 17 58  1  0  0  0  0
 18 24  1  0  0  0  0
 18 59  1  0  0  0  0
 18 60  1  0  0  0  0
 19 61  1  0  0  0  0
 19 62  1  0  0  0  0
 20 63  1  0  0  0  0
 20 64  1  0  0  0  0
 21 65  1  0  0  0  0
 21 66  1  0  0  0  0
 22 28  1  0  0  0  0
 22 67  1  0  0  0  0
 22 68  1  0  0  0  0
 23 29  1  0  0  0  0
 23 69  1  0  0  0  0
 23 70  1  0  0  0  0
 24 30  1  0  0  0  0
 24 71  1  0  0  0  0
 24 72  1  0  0  0  0
 25 73  1  0  0  0  0
 25 74  1  0  0  0  0
 25 75  1  0  0  0  0
 26 76  1  0  0  0  0
 26 77  1  0  0  0  0
 26 78  1  0  0  0  0
 27 79  1  0  0  0  0
 27 80  1  0  0  0  0
 27 81  1  0  0  0  0
 28 82  1  0  0  0  0
 28 83  1  0  0  0  0
 28 84  1  0  0  0  0
 29 85  1  0  0  0  0
 29 86  1  0  0  0  0
 29 87  1  0  0  0  0
 30 88  1  0  0  0  0
 30 89  1  0  0  0  0
 30 90  1  0  0  0  0
 31 32  2  0  0  0  0
 31 33  1  0  0  0  0
 31 37  1  0  0  0  0
 32 34  1  0  0  0  0
 32 38  1  0  0  0  0
 35 36  1  0  0  0  0
 35 37  2  0  0  0  0
 35 39  1  0  0  0  0
 37 91  1  0  0  0  0
 38 39  2  0  0  0  0
 38 92  1  0  0  0  0
 39 93  1  0  0  0  0
M  END
> <PUBCHEM_COMPOUND_CID>
18725

> <PUBCHEM_COMPOUND_CANONICALIZED>
1

> <PUBCHEM_CACTVS_COMPLEXITY>
677

> <PUBCHEM_CACTVS_HBOND_ACCEPTOR>
6

> <PUBCHEM_CACTVS_HBOND_DONOR>
0

> <PUBCHEM_CACTVS_ROTATABLE_BOND>
24

> <PUBCHEM_CACTVS_SUBSKEYS>
AAADcfB8OAAAAAAAAAAAAAAAAAAAAAAAAAAwAAAAAAAAAAABAAAAGgAAAAAADQCgmAIyCIAABACIAiDSCAACAAAkAAAIiAEACMgIJjKANRiCMQAkwAEIqYfL7viOwAACAAAQAACAAAQAACAAAAAAAAAAAA==

> <PUBCHEM_IUPAC_OPENEYE_NAME>
tris(2-ethylhexyl) benzene-1,2,4-tricarboxylate

> <PUBCHEM_IUPAC_CAS_NAME>
benzene-1,2,4-tricarboxylic acid tris(2-ethylhexyl) ester

> <PUBCHEM_IUPAC_NAME_MARKUP>
tris(2-ethylhexyl) benzene-1,2,4-tricarboxylate

> <PUBCHEM_IUPAC_NAME>
tris(2-ethylhexyl) benzene-1,2,4-tricarboxylate

> <PUBCHEM_IUPAC_SYSTEMATIC_NAME>
tris(2-ethylhexyl) benzene-1,2,4-tricarboxylate

> <PUBCHEM_IUPAC_TRADITIONAL_NAME>
benzene-1,2,4-tricarboxylic acid tris(2-ethylhexyl) ester

> <PUBCHEM_IUPAC_INCHI>
InChI=1S/C33H54O6/c1-7-13-16-25(10-4)22-37-31(34)28-19-20-29(32(35)38-23-26(11-5)17-14-8-2)30(21-28)33(36)39-24-27(12-6)18-15-9-3/h19-21,25-27H,7-18,22-24H2,1-6H3

> <PUBCHEM_IUPAC_INCHIKEY>
KRADHMIOFJQKEZ-UHFFFAOYSA-N

> <PUBCHEM_XLOGP3>
10.4

> <PUBCHEM_EXACT_MASS>
546.39203944

> <PUBCHEM_MOLECULAR_FORMULA>
C33H54O6

> <PUBCHEM_MOLECULAR_WEIGHT>
546.8

> <PUBCHEM_SMILES>
CCCCC(CC)COC(=O)C1=CC(=C(C=C1)C(=O)OCC(CC)CCCC)C(=O)OCC(CC)CCCC

> <PUBCHEM_OPENEYE_CAN_SMILES>
CCCCC(CC)COC(=O)C1=CC(=C(C=C1)C(=O)OCC(CC)CCCC)C(=O)OCC(CC)CCCC

> <PUBCHEM_OPENEYE_ISO_SMILES>
CCCCC(CC)COC(=O)C1=CC(=C(C=C1)C(=O)OCC(CC)CCCC)C(=O)OCC(CC)CCCC

> <PUBCHEM_CACTVS_TPSA>
78.9

> <PUBCHEM_MONOISOTOPIC_WEIGHT>
546.39203944

> <PUBCHEM_TOTAL_CHARGE>
0

> <PUBCHEM_HEAVY_ATOM_COUNT>
39

> <PUBCHEM_ATOM_DEF_STEREO_COUNT>
0

> <PUBCHEM_ATOM_UDEF_STEREO_COUNT>
3

> <PUBCHEM_BOND_DEF_STEREO_COUNT>
0

> <PUBCHEM_BOND_UDEF_STEREO_COUNT>
0

> <PUBCHEM_ISOTOPIC_ATOM_COUNT>
0

> <PUBCHEM_COMPONENT_COUNT>
1

> <PUBCHEM_CACTVS_TAUTO_COUNT>
-1

> <PUBCHEM_COORDINATE_TYPE>
1
5
255

> <PUBCHEM_BONDANNOTATIONS>
31  32  8
31  37  8
32  38  8
35  37  8
35  39  8
38  39  8
7  13  3
8  14  3
9  15  3

$$$$
