20838817
  -OEChem-04042512252D

138137  0     1  0  0  0  0  0999 V2000
   11.4004    0.8660    0.0000 S   0  0  0  0  0  0  0  0  0  0  0  0
    7.7361   15.8353    0.0000 O   0  0  0  0  0  0  0  0  0  0  0  0
   12.2664    1.3660    0.0000 O   0  0  0  0  0  0  0  0  0  0  0  0
   10.5344    0.3660    0.0000 O   0  5  0  0  0  0  0  0  0  0  0  0
   10.9004    1.7320    0.0000 O   0  0  0  0  0  0  0  0  0  0  0  0
   11.9004    0.0000    0.0000 O   0  0  0  0  0  0  0  0  0  0  0  0
   11.3074   16.3307    0.0000 N   0  3  3  0  0  0  0  0  0  0  0  0
   11.8074   17.8696    0.0000 N   0  0  0  0  0  0  0  0  0  0  0  0
    9.1373   14.8172    0.0000 N   0  0  0  0  0  0  0  0  0  0  0  0
   10.4984   16.9185    0.0000 C   0  0  0  0  0  0  0  0  0  0  0  0
   12.1164   16.9185    0.0000 C   0  0  0  0  0  0  0  0  0  0  0  0
   10.7196   15.5217    0.0000 C   0  0  0  0  0  0  0  0  0  0  0  0
   11.8952   15.5217    0.0000 C   0  0  0  0  0  0  0  0  0  0  0  0
   10.8074   17.8696    0.0000 C   0  0  0  0  0  0  0  0  0  0  0  0
   13.0675   16.6095    0.0000 C   0  0  0  0  0  0  0  0  0  0  0  0
    9.7251   15.6263    0.0000 C   0  0  0  0  0  0  0  0  0  0  0  0
   13.8106   17.2786    0.0000 C   0  0  0  0  0  0  0  0  0  0  0  0
   11.4885   14.6082    0.0000 C   0  0  0  0  0  0  0  0  0  0  0  0
   14.7617   16.9696    0.0000 C   0  0  0  0  0  0  0  0  0  0  0  0
   15.5048   17.6388    0.0000 C   0  0  0  0  0  0  0  0  0  0  0  0
   16.4559   17.3297    0.0000 C   0  0  0  0  0  0  0  0  0  0  0  0
    8.1428   14.9218    0.0000 C   0  0  0  0  0  0  0  0  0  0  0  0
    7.5550   14.1128    0.0000 C   0  0  0  0  0  0  0  0  0  0  0  0
   17.1990   17.9989    0.0000 C   0  0  0  0  0  0  0  0  0  0  0  0
    6.5605   14.2173    0.0000 C   0  0  0  0  0  0  0  0  0  0  0  0
   18.1501   17.6899    0.0000 C   0  0  0  0  0  0  0  0  0  0  0  0
    5.9727   13.4083    0.0000 C   0  0  0  0  0  0  0  0  0  0  0  0
    4.9782   13.5128    0.0000 C   0  0  0  0  0  0  0  0  0  0  0  0
   18.8932   18.3590    0.0000 C   0  0  0  0  0  0  0  0  0  0  0  0
    4.3904   12.7038    0.0000 C   0  0  0  0  0  0  0  0  0  0  0  0
    3.3959   12.8083    0.0000 C   0  0  0  0  0  0  0  0  0  0  0  0
   19.8443   18.0500    0.0000 C   0  0  0  0  0  0  0  0  0  0  0  0
   20.0522   17.0718    0.0000 C   0  0  0  0  0  0  0  0  0  0  0  0
    2.8081   11.9993    0.0000 C   0  0  0  0  0  0  0  0  0  0  0  0
   21.0033   16.7628    0.0000 C   0  0  0  0  0  0  0  0  0  0  0  0
   21.2112   15.7847    0.0000 C   0  0  0  0  0  0  0  0  0  0  0  0
   22.1622   15.4756    0.0000 C   0  0  0  0  0  0  0  0  0  0  0  0
    1.8136   12.1038    0.0000 C   0  0  0  0  0  0  0  0  0  0  0  0
   22.3701   14.4975    0.0000 C   0  0  0  0  0  0  0  0  0  0  0  0
    1.0447    9.5722    0.0000 C   0  0  0  0  0  0  0  0  0  0  0  0
    1.6325   10.3813    0.0000 C   0  0  0  0  0  0  0  0  0  0  0  0
    1.4515    8.6587    0.0000 C   0  0  0  0  0  0  0  0  0  0  0  0
    1.2258   11.2948    0.0000 C   0  0  0  0  0  0  0  0  0  0  0  0
   23.3212   14.1885    0.0000 C   0  0  0  0  0  0  0  0  0  0  0  0
    0.8637    7.8497    0.0000 C   0  0  0  0  0  0  0  0  0  0  0  0
    1.2704    6.9361    0.0000 C   0  0  0  0  0  0  0  0  0  0  0  0
    0.6826    6.1271    0.0000 C   0  0  0  0  0  0  0  0  0  0  0  0
   23.5291   13.2103    0.0000 C   0  0  0  0  0  0  0  0  0  0  0  0
    1.0894    5.2136    0.0000 C   0  0  0  0  0  0  0  0  0  0  0  0
   24.4802   12.9013    0.0000 C   0  0  0  0  0  0  0  0  0  0  0  0
    0.5016    4.4046    0.0000 C   0  0  0  0  0  0  0  0  0  0  0  0
   13.1325    0.8660    0.0000 C   0  0  0  0  0  0  0  0  0  0  0  0
   13.9985    1.3660    0.0000 C   0  0  0  0  0  0  0  0  0  0  0  0
    9.9320   17.1707    0.0000 H   0  0  0  0  0  0  0  0  0  0  0  0
   10.1884   16.3816    0.0000 H   0  0  0  0  0  0  0  0  0  0  0  0
   10.5487   14.9258    0.0000 H   0  0  0  0  0  0  0  0  0  0  0  0
   11.2769   15.2499    0.0000 H   0  0  0  0  0  0  0  0  0  0  0  0
   12.4092   15.1750    0.0000 H   0  0  0  0  0  0  0  0  0  0  0  0
   12.3259   15.9677    0.0000 H   0  0  0  0  0  0  0  0  0  0  0  0
   10.8722   18.4862    0.0000 H   0  0  0  0  0  0  0  0  0  0  0  0
   10.2010   17.9985    0.0000 H   0  0  0  0  0  0  0  0  0  0  0  0
   12.7764   16.0621    0.0000 H   0  0  0  0  0  0  0  0  0  0  0  0
   13.5561   16.2278    0.0000 H   0  0  0  0  0  0  0  0  0  0  0  0
    9.8960   16.2222    0.0000 H   0  0  0  0  0  0  0  0  0  0  0  0
    9.1678   15.8981    0.0000 H   0  0  0  0  0  0  0  0  0  0  0  0
   14.1017   17.8261    0.0000 H   0  0  0  0  0  0  0  0  0  0  0  0
   13.3221   17.6604    0.0000 H   0  0  0  0  0  0  0  0  0  0  0  0
   10.9221   14.8604    0.0000 H   0  0  0  0  0  0  0  0  0  0  0  0
   11.2363   14.0418    0.0000 H   0  0  0  0  0  0  0  0  0  0  0  0
   12.0549   14.3560    0.0000 H   0  0  0  0  0  0  0  0  0  0  0  0
   14.4706   16.4222    0.0000 H   0  0  0  0  0  0  0  0  0  0  0  0
   15.2503   16.5879    0.0000 H   0  0  0  0  0  0  0  0  0  0  0  0
    9.3895   14.2508    0.0000 H   0  0  0  0  0  0  0  0  0  0  0  0
   15.7959   18.1862    0.0000 H   0  0  0  0  0  0  0  0  0  0  0  0
   15.0163   18.0205    0.0000 H   0  0  0  0  0  0  0  0  0  0  0  0
   16.1648   16.7823    0.0000 H   0  0  0  0  0  0  0  0  0  0  0  0
   16.9445   16.9480    0.0000 H   0  0  0  0  0  0  0  0  0  0  0  0
    7.3841   13.5168    0.0000 H   0  0  0  0  0  0  0  0  0  0  0  0
    8.1123   13.8410    0.0000 H   0  0  0  0  0  0  0  0  0  0  0  0
   17.4901   18.5463    0.0000 H   0  0  0  0  0  0  0  0  0  0  0  0
   16.7105   18.3806    0.0000 H   0  0  0  0  0  0  0  0  0  0  0  0
    6.7314   14.8133    0.0000 H   0  0  0  0  0  0  0  0  0  0  0  0
    6.0032   14.4891    0.0000 H   0  0  0  0  0  0  0  0  0  0  0  0
   17.8590   17.1424    0.0000 H   0  0  0  0  0  0  0  0  0  0  0  0
   18.6387   17.3081    0.0000 H   0  0  0  0  0  0  0  0  0  0  0  0
    5.8018   12.8123    0.0000 H   0  0  0  0  0  0  0  0  0  0  0  0
    6.5300   13.1365    0.0000 H   0  0  0  0  0  0  0  0  0  0  0  0
    5.1491   14.1088    0.0000 H   0  0  0  0  0  0  0  0  0  0  0  0
    4.4209   13.7846    0.0000 H   0  0  0  0  0  0  0  0  0  0  0  0
   18.7643   18.9654    0.0000 H   0  0  0  0  0  0  0  0  0  0  0  0
    4.2195   12.1078    0.0000 H   0  0  0  0  0  0  0  0  0  0  0  0
    4.9476   12.4320    0.0000 H   0  0  0  0  0  0  0  0  0  0  0  0
    3.5668   13.4043    0.0000 H   0  0  0  0  0  0  0  0  0  0  0  0
    2.8386   13.0801    0.0000 H   0  0  0  0  0  0  0  0  0  0  0  0
   20.3050   18.4648    0.0000 H   0  0  0  0  0  0  0  0  0  0  0  0
   19.4326   17.0502    0.0000 H   0  0  0  0  0  0  0  0  0  0  0  0
   19.9659   16.4579    0.0000 H   0  0  0  0  0  0  0  0  0  0  0  0
    2.6372   11.4033    0.0000 H   0  0  0  0  0  0  0  0  0  0  0  0
    3.3653   11.7275    0.0000 H   0  0  0  0  0  0  0  0  0  0  0  0
   21.6229   16.7844    0.0000 H   0  0  0  0  0  0  0  0  0  0  0  0
   21.0895   17.3768    0.0000 H   0  0  0  0  0  0  0  0  0  0  0  0
   20.5915   15.7630    0.0000 H   0  0  0  0  0  0  0  0  0  0  0  0
   21.1249   15.1707    0.0000 H   0  0  0  0  0  0  0  0  0  0  0  0
   22.7819   15.4973    0.0000 H   0  0  0  0  0  0  0  0  0  0  0  0
   22.2485   16.0896    0.0000 H   0  0  0  0  0  0  0  0  0  0  0  0
    1.5614   12.6702    0.0000 H   0  0  0  0  0  0  0  0  0  0  0  0
   21.7505   14.4759    0.0000 H   0  0  0  0  0  0  0  0  0  0  0  0
   22.2839   13.8835    0.0000 H   0  0  0  0  0  0  0  0  0  0  0  0
    0.6140   10.0182    0.0000 H   0  0  0  0  0  0  0  0  0  0  0  0
    0.5307    9.2255    0.0000 H   0  0  0  0  0  0  0  0  0  0  0  0
    1.8822    8.2127    0.0000 H   0  0  0  0  0  0  0  0  0  0  0  0
    1.9655    9.0054    0.0000 H   0  0  0  0  0  0  0  0  0  0  0  0
    2.0632    9.9353    0.0000 H   0  0  0  0  0  0  0  0  0  0  0  0
    2.1465   10.7280    0.0000 H   0  0  0  0  0  0  0  0  0  0  0  0
    0.6092   11.3596    0.0000 H   0  0  0  0  0  0  0  0  0  0  0  0
   23.9408   14.2101    0.0000 H   0  0  0  0  0  0  0  0  0  0  0  0
   23.4075   14.8024    0.0000 H   0  0  0  0  0  0  0  0  0  0  0  0
    0.4330    8.2957    0.0000 H   0  0  0  0  0  0  0  0  0  0  0  0
    0.3497    7.5030    0.0000 H   0  0  0  0  0  0  0  0  0  0  0  0
    1.7011    6.4901    0.0000 H   0  0  0  0  0  0  0  0  0  0  0  0
    1.7844    7.2828    0.0000 H   0  0  0  0  0  0  0  0  0  0  0  0
    0.2520    6.5731    0.0000 H   0  0  0  0  0  0  0  0  0  0  0  0
    0.1686    5.7804    0.0000 H   0  0  0  0  0  0  0  0  0  0  0  0
   22.9095   13.1887    0.0000 H   0  0  0  0  0  0  0  0  0  0  0  0
   23.4428   12.5964    0.0000 H   0  0  0  0  0  0  0  0  0  0  0  0
    1.5201    4.7676    0.0000 H   0  0  0  0  0  0  0  0  0  0  0  0
    1.6034    5.5603    0.0000 H   0  0  0  0  0  0  0  0  0  0  0  0
   24.2886   12.3117    0.0000 H   0  0  0  0  0  0  0  0  0  0  0  0
   25.0698   12.7097    0.0000 H   0  0  0  0  0  0  0  0  0  0  0  0
   24.6718   13.4910    0.0000 H   0  0  0  0  0  0  0  0  0  0  0  0
    0.0000    4.7690    0.0000 H   0  0  0  0  0  0  0  0  0  0  0  0
    0.1372    3.9030    0.0000 H   0  0  0  0  0  0  0  0  0  0  0  0
    1.0032    4.0401    0.0000 H   0  0  0  0  0  0  0  0  0  0  0  0
   12.7339    0.3911    0.0000 H   0  0  0  0  0  0  0  0  0  0  0  0
   13.5310    0.3911    0.0000 H   0  0  0  0  0  0  0  0  0  0  0  0
   14.3085    0.8291    0.0000 H   0  0  0  0  0  0  0  0  0  0  0  0
   14.5354    1.6760    0.0000 H   0  0  0  0  0  0  0  0  0  0  0  0
   13.6885    1.9030    0.0000 H   0  0  0  0  0  0  0  0  0  0  0  0
  1  3  1  0  0  0  0
  1  4  1  0  0  0  0
  1  5  2  0  0  0  0
  1  6  2  0  0  0  0
  2 22  2  0  0  0  0
  3 52  1  0  0  0  0
  7 10  1  0  0  0  0
  7 11  1  0  0  0  0
  7 12  1  0  0  0  0
  7 13  1  0  0  0  0
  8 11  2  0  0  0  0
  8 14  1  0  0  0  0
  9 16  1  0  0  0  0
  9 22  1  0  0  0  0
  9 73  1  0  0  0  0
 10 14  1  0  0  0  0
 10 54  1  0  0  0  0
 10 55  1  0  0  0  0
 11 15  1  0  0  0  0
 12 16  1  0  0  0  0
 12 56  1  0  0  0  0
 12 57  1  0  0  0  0
 13 18  1  0  0  0  0
 13 58  1  0  0  0  0
 13 59  1  0  0  0  0
 14 60  1  0  0  0  0
 14 61  1  0  0  0  0
 15 17  1  0  0  0  0
 15 62  1  0  0  0  0
 15 63  1  0  0  0  0
 16 64  1  0  0  0  0
 16 65  1  0  0  0  0
 17 19  1  0  0  0  0
 17 66  1  0  0  0  0
 17 67  1  0  0  0  0
 18 68  1  0  0  0  0
 18 69  1  0  0  0  0
 18 70  1  0  0  0  0
 19 20  1  0  0  0  0
 19 71  1  0  0  0  0
 19 72  1  0  0  0  0
 20 21  1  0  0  0  0
 20 74  1  0  0  0  0
 20 75  1  0  0  0  0
 21 24  1  0  0  0  0
 21 76  1  0  0  0  0
 21 77  1  0  0  0  0
 22 23  1  0  0  0  0
 23 25  1  0  0  0  0
 23 78  1  0  0  0  0
 23 79  1  0  0  0  0
 24 26  1  0  0  0  0
 24 80  1  0  0  0  0
 24 81  1  0  0  0  0
 25 27  1  0  0  0  0
 25 82  1  0  0  0  0
 25 83  1  0  0  0  0
 26 29  1  0  0  0  0
 26 84  1  0  0  0  0
 26 85  1  0  0  0  0
 27 28  1  0  0  0  0
 27 86  1  0  0  0  0
 27 87  1  0  0  0  0
 28 30  1  0  0  0  0
 28 88  1  0  0  0  0
 28 89  1  0  0  0  0
 29 32  2  0  0  0  0
 29 90  1  0  0  0  0
 30 31  1  0  0  0  0
 30 91  1  0  0  0  0
 30 92  1  0  0  0  0
 31 34  1  0  0  0  0
 31 93  1  0  0  0  0
 31 94  1  0  0  0  0
 32 33  1  0  0  0  0
 32 95  1  0  0  0  0
 33 35  1  0  0  0  0
 33 96  1  0  0  0  0
 33 97  1  0  0  0  0
 34 38  1  0  0  0  0
 34 98  1  0  0  0  0
 34 99  1  0  0  0  0
 35 36  1  0  0  0  0
 35100  1  0  0  0  0
 35101  1  0  0  0  0
 36 37  1  0  0  0  0
 36102  1  0  0  0  0
 36103  1  0  0  0  0
 37 39  1  0  0  0  0
 37104  1  0  0  0  0
 37105  1  0  0  0  0
 38 43  2  0  0  0  0
 38106  1  0  0  0  0
 39 44  1  0  0  0  0
 39107  1  0  0  0  0
 39108  1  0  0  0  0
 40 41  1  0  0  0  0
 40 42  1  0  0  0  0
 40109  1  0  0  0  0
 40110  1  0  0  0  0
 41 43  1  0  0  0  0
 41113  1  0  0  0  0
 41114  1  0  0  0  0
 42 45  1  0  0  0  0
 42111  1  0  0  0  0
 42112  1  0  0  0  0
 43115  1  0  0  0  0
 44 48  1  0  0  0  0
 44116  1  0  0  0  0
 44117  1  0  0  0  0
 45 46  1  0  0  0  0
 45118  1  0  0  0  0
 45119  1  0  0  0  0
 46 47  1  0  0  0  0
 46120  1  0  0  0  0
 46121  1  0  0  0  0
 47 49  1  0  0  0  0
 47122  1  0  0  0  0
 47123  1  0  0  0  0
 48 50  1  0  0  0  0
 48124  1  0  0  0  0
 48125  1  0  0  0  0
 49 51  1  0  0  0  0
 49126  1  0  0  0  0
 49127  1  0  0  0  0
 50128  1  0  0  0  0
 50129  1  0  0  0  0
 50130  1  0  0  0  0
 51131  1  0  0  0  0
 51132  1  0  0  0  0
 51133  1  0  0  0  0
 52 53  1  0  0  0  0
 52134  1  0  0  0  0
 52135  1  0  0  0  0
 53136  1  0  0  0  0
 53137  1  0  0  0  0
 53138  1  0  0  0  0
M  CHG  2   4  -1   7   1
M  END
> <PUBCHEM_COMPOUND_CID>
20838817

> <PUBCHEM_COMPOUND_CANONICALIZED>
1

> <PUBCHEM_CACTVS_COMPLEXITY>
877

> <PUBCHEM_CACTVS_HBOND_ACCEPTOR>
6

> <PUBCHEM_CACTVS_HBOND_DONOR>
1

> <PUBCHEM_CACTVS_ROTATABLE_BOND>
35

> <PUBCHEM_CACTVS_SUBSKEYS>
AAADcfB/OABAAAAAAAAAAAAAAAAAAQAAAAAAAAAAAAAAAAAAAAAAHgAQAAAACADhgAYDAAPAAACoACNyNDAAAAEgAAAJCIE4AAgAQBIAiQAUAAAAlgCIAAMYiICAAAAAAAAAAAAAAAAAAAAAAAAAAAAAAA==

> <PUBCHEM_IUPAC_OPENEYE_NAME>
(Z)-N-[2-[1-ethyl-2-[(Z)-heptadec-8-enyl]-4,5-dihydroimidazol-1-ium-1-yl]ethyl]octadec-9-enamide;ethyl sulfate

> <PUBCHEM_IUPAC_CAS_NAME>
(Z)-N-[2-[1-ethyl-2-[(Z)-heptadec-8-enyl]-4,5-dihydroimidazol-1-ium-1-yl]ethyl]-9-octadecenamide;ethyl sulfate

> <PUBCHEM_IUPAC_NAME_MARKUP>
(<I>Z</I>)-<I>N</I>-[2-[1-ethyl-2-[(<I>Z</I>)-heptadec-8-enyl]-4,5-dihydroimidazol-1-ium-1-yl]ethyl]octadec-9-enamide;ethyl sulfate

> <PUBCHEM_IUPAC_NAME>
(Z)-N-[2-[1-ethyl-2-[(Z)-heptadec-8-enyl]-4,5-dihydroimidazol-1-ium-1-yl]ethyl]octadec-9-enamide;ethyl sulfate

> <PUBCHEM_IUPAC_SYSTEMATIC_NAME>
(Z)-N-[2-[1-ethyl-2-[(Z)-heptadec-8-enyl]-4,5-dihydroimidazol-1-ium-1-yl]ethyl]octadec-9-enamide;ethyl sulfate

> <PUBCHEM_IUPAC_TRADITIONAL_NAME>
(Z)-N-[2-[1-ethyl-2-[(Z)-heptadec-8-enyl]-2-imidazolin-1-ium-1-yl]ethyl]octadec-9-enamide;ethyl sulfate

> <PUBCHEM_IUPAC_INCHI>
InChI=1S/C42H79N3O.C2H6O4S/c1-4-7-9-11-13-15-17-19-21-23-25-27-29-31-33-35-41-43-37-39-45(41,6-3)40-38-44-42(46)36-34-32-30-28-26-24-22-20-18-16-14-12-10-8-5-2;1-2-6-7(3,4)5/h19-22H,4-18,23-40H2,1-3H3;2H2,1H3,(H,3,4,5)/b21-19-,22-20-;

> <PUBCHEM_IUPAC_INCHIKEY>
RUYPFPITFAOONF-JDVCJPALSA-N

> <PUBCHEM_EXACT_MASS>
767.62099399

> <PUBCHEM_MOLECULAR_FORMULA>
C44H85N3O5S

> <PUBCHEM_MOLECULAR_WEIGHT>
768.2

> <PUBCHEM_SMILES>
CCCCCCCC/C=C\CCCCCCCC1=NCC[N+]1(CC)CCNC(=O)CCCCCCC/C=C\CCCCCCCC.CCOS(=O)(=O)[O-]

> <PUBCHEM_OPENEYE_CAN_SMILES>
CCCCCCCCC=CCCCCCCCC1=NCC[N+]1(CC)CCNC(=O)CCCCCCCC=CCCCCCCCC.CCOS(=O)(=O)[O-]

> <PUBCHEM_OPENEYE_ISO_SMILES>
CCCCCCCC/C=C\CCCCCCCC1=NCC[N+]1(CC)CCNC(=O)CCCCCCC/C=C\CCCCCCCC.CCOS(=O)(=O)[O-]

> <PUBCHEM_CACTVS_TPSA>
116

> <PUBCHEM_MONOISOTOPIC_WEIGHT>
767.62099399

> <PUBCHEM_TOTAL_CHARGE>
0

> <PUBCHEM_HEAVY_ATOM_COUNT>
53

> <PUBCHEM_ATOM_DEF_STEREO_COUNT>
0

> <PUBCHEM_ATOM_UDEF_STEREO_COUNT>
1

> <PUBCHEM_BOND_DEF_STEREO_COUNT>
2

> <PUBCHEM_BOND_UDEF_STEREO_COUNT>
0

> <PUBCHEM_ISOTOPIC_ATOM_COUNT>
0

> <PUBCHEM_COMPONENT_COUNT>
2

> <PUBCHEM_CACTVS_TAUTO_COUNT>
-1

> <PUBCHEM_COORDINATE_TYPE>
1
5
255

> <PUBCHEM_BONDANNOTATIONS>
7  13  3

$$$$
