21885113
  -OEChem-04042512312D

 34 36  0     1  0  0  0  0  0999 V2000
    4.2962   -2.0294    0.0000 O   0  0  0  0  0  0  0  0  0  0  0  0
    2.5826    0.3559    0.0000 O   0  0  0  0  0  0  0  0  0  0  0  0
    5.8969    0.1085    0.0000 C   0  0  3  0  0  0  0  0  0  0  0  0
    5.5549    1.0482    0.0000 C   0  0  3  0  0  0  0  0  0  0  0  0
    7.2696    0.7005    0.0000 C   0  0  3  0  0  0  0  0  0  0  0  0
    7.5284    1.6664    0.0000 C   0  0  3  0  0  0  0  0  0  0  0  0
    5.1120   -0.5015    0.0000 C   0  0  3  0  0  0  0  0  0  0  0  0
    6.7918    2.6490    0.0000 C   0  0  0  0  0  0  0  0  0  0  0  0
    4.5615    1.0109    0.0000 C   0  0  0  0  0  0  0  0  0  0  0  0
    4.2884    0.0551    0.0000 C   0  0  3  0  0  0  0  0  0  0  0  0
    8.6686    0.1917    0.0000 C   0  0  0  0  0  0  0  0  0  0  0  0
    8.9274    1.1576    0.0000 C   0  0  0  0  0  0  0  0  0  0  0  0
    5.1452   -1.5009    0.0000 C   0  0  0  0  0  0  0  0  0  0  0  0
    3.3486   -0.2869    0.0000 C   0  0  0  0  0  0  0  0  0  0  0  0
    6.2124   -0.4252    0.0000 H   0  0  0  0  0  0  0  0  0  0  0  0
    5.4497    1.6592    0.0000 H   0  0  0  0  0  0  0  0  0  0  0  0
    7.7311    1.1145    0.0000 H   0  0  0  0  0  0  0  0  0  0  0  0
    7.8978    2.1644    0.0000 H   0  0  0  0  0  0  0  0  0  0  0  0
    4.5693   -0.8014    0.0000 H   0  0  0  0  0  0  0  0  0  0  0  0
    7.1096    3.1814    0.0000 H   0  0  0  0  0  0  0  0  0  0  0  0
    6.1787    2.7410    0.0000 H   0  0  0  0  0  0  0  0  0  0  0  0
    4.6035    1.6295    0.0000 H   0  0  0  0  0  0  0  0  0  0  0  0
    3.9508    1.1177    0.0000 H   0  0  0  0  0  0  0  0  0  0  0  0
    3.8347    0.4777    0.0000 H   0  0  0  0  0  0  0  0  0  0  0  0
    8.4736   -0.3969    0.0000 H   0  0  0  0  0  0  0  0  0  0  0  0
    9.2625    0.0139    0.0000 H   0  0  0  0  0  0  0  0  0  0  0  0
    9.5214    0.9798    0.0000 H   0  0  0  0  0  0  0  0  0  0  0  0
    9.1223    1.7462    0.0000 H   0  0  0  0  0  0  0  0  0  0  0  0
    5.3764   -2.0762    0.0000 H   0  0  0  0  0  0  0  0  0  0  0  0
    5.7518   -1.3731    0.0000 H   0  0  0  0  0  0  0  0  0  0  0  0
    2.8737   -0.6854    0.0000 H   0  0  0  0  0  0  0  0  0  0  0  0
    3.6586   -0.8239    0.0000 H   0  0  0  0  0  0  0  0  0  0  0  0
    4.3168   -2.6490    0.0000 H   0  0  0  0  0  0  0  0  0  0  0  0
    2.0000    0.1438    0.0000 H   0  0  0  0  0  0  0  0  0  0  0  0
  1 13  1  0  0  0  0
  1 33  1  0  0  0  0
  2 14  1  0  0  0  0
  2 34  1  0  0  0  0
  3  4  1  0  0  0  0
  3  5  1  0  0  0  0
  3  7  1  0  0  0  0
  3 15  1  0  0  0  0
  4  6  1  0  0  0  0
  4  9  1  0  0  0  0
  4 16  1  0  0  0  0
  5  8  1  0  0  0  0
  5 11  1  0  0  0  0
  5 17  1  0  0  0  0
  6  8  1  0  0  0  0
  6 12  1  0  0  0  0
  6 18  1  0  0  0  0
  7 10  1  0  0  0  0
  7 13  1  0  0  0  0
  7 19  1  0  0  0  0
  8 20  1  0  0  0  0
  8 21  1  0  0  0  0
  9 10  1  0  0  0  0
  9 22  1  0  0  0  0
  9 23  1  0  0  0  0
 10 14  1  0  0  0  0
 10 24  1  0  0  0  0
 11 12  1  0  0  0  0
 11 25  1  0  0  0  0
 11 26  1  0  0  0  0
 12 27  1  0  0  0  0
 12 28  1  0  0  0  0
 13 29  1  0  0  0  0
 13 30  1  0  0  0  0
 14 31  1  0  0  0  0
 14 32  1  0  0  0  0
M  END
> <PUBCHEM_COMPOUND_CID>
21885113

> <PUBCHEM_COMPOUND_CANONICALIZED>
1

> <PUBCHEM_CACTVS_COMPLEXITY>
228

> <PUBCHEM_CACTVS_HBOND_ACCEPTOR>
2

> <PUBCHEM_CACTVS_HBOND_DONOR>
2

> <PUBCHEM_CACTVS_ROTATABLE_BOND>
2

> <PUBCHEM_CACTVS_SUBSKEYS>
AAADceBwMAAAAAAAAAAAAAAAAAAAAYMGAAAwAAAAAAAYAAAAAAAAGgAACAAADQCggAIAAAAAAgAAAAAAAAAAAAAAAAAAAAAAAAAAEAIAAAAAQAAEAAAAAAHAwPAOgAAAAAAAAAAAAAQAACAAAQAACAAAAA==

> <PUBCHEM_IUPAC_OPENEYE_NAME>
[3-(hydroxymethyl)-4-tricyclo[5.2.1.02,6]decanyl]methanol

> <PUBCHEM_IUPAC_CAS_NAME>
[3-(hydroxymethyl)-4-tricyclo[5.2.1.02,6]decanyl]methanol

> <PUBCHEM_IUPAC_NAME_MARKUP>
[3-(hydroxymethyl)-4-tricyclo[5.2.1.0<SUP>2,6</SUP>]decanyl]methanol

> <PUBCHEM_IUPAC_NAME>
[3-(hydroxymethyl)-4-tricyclo[5.2.1.02,6]decanyl]methanol

> <PUBCHEM_IUPAC_SYSTEMATIC_NAME>
[3-(hydroxymethyl)-4-tricyclo[5.2.1.02,6]decanyl]methanol

> <PUBCHEM_IUPAC_TRADITIONAL_NAME>
(3-methylol-4-tricyclo[5.2.1.02,6]decanyl)methanol

> <PUBCHEM_IUPAC_INCHI>
InChI=1S/C12H20O2/c13-5-9-4-10-7-1-2-8(3-7)12(10)11(9)6-14/h7-14H,1-6H2

> <PUBCHEM_IUPAC_INCHIKEY>
CGGMCNLKDXNMLH-UHFFFAOYSA-N

> <PUBCHEM_XLOGP3_AA>
1.7

> <PUBCHEM_EXACT_MASS>
196.146329876

> <PUBCHEM_MOLECULAR_FORMULA>
C12H20O2

> <PUBCHEM_MOLECULAR_WEIGHT>
196.29

> <PUBCHEM_SMILES>
C1CC2CC1C3C2C(C(C3)CO)CO

> <PUBCHEM_OPENEYE_CAN_SMILES>
C1CC2CC1C3C2C(C(C3)CO)CO

> <PUBCHEM_OPENEYE_ISO_SMILES>
C1CC2CC1C3C2C(C(C3)CO)CO

> <PUBCHEM_CACTVS_TPSA>
40.5

> <PUBCHEM_MONOISOTOPIC_WEIGHT>
196.146329876

> <PUBCHEM_TOTAL_CHARGE>
0

> <PUBCHEM_HEAVY_ATOM_COUNT>
14

> <PUBCHEM_ATOM_DEF_STEREO_COUNT>
0

> <PUBCHEM_ATOM_UDEF_STEREO_COUNT>
6

> <PUBCHEM_BOND_DEF_STEREO_COUNT>
0

> <PUBCHEM_BOND_UDEF_STEREO_COUNT>
0

> <PUBCHEM_ISOTOPIC_ATOM_COUNT>
0

> <PUBCHEM_COMPONENT_COUNT>
1

> <PUBCHEM_CACTVS_TAUTO_COUNT>
-1

> <PUBCHEM_COORDINATE_TYPE>
1
5
255

> <PUBCHEM_BONDANNOTATIONS>
10  14  3
3  7  3
4  9  3
5  11  3
6  12  3
7  13  3

$$$$
