21972107
  -OEChem-04042512252D

 63 60  0     0  0  0  0  0  0999 V2000
    9.7942    0.0670    0.0000 Co  0  2  0  0  0  0  0  0  0  0  0  0
    8.9282    0.5670    0.0000 O   0  5  0  0  0  0  0  0  0  0  0  0
   10.6603    0.5670    0.0000 O   0  5  0  0  0  0  0  0  0  0  0  0
    8.0622   -0.9330    0.0000 O   0  0  0  0  0  0  0  0  0  0  0  0
   11.5263   -0.9330    0.0000 O   0  0  0  0  0  0  0  0  0  0  0  0
    2.8660    0.0670    0.0000 C   0  0  0  0  0  0  0  0  0  0  0  0
   16.7224    0.0670    0.0000 C   0  0  0  0  0  0  0  0  0  0  0  0
    3.7320    0.5670    0.0000 C   0  0  0  0  0  0  0  0  0  0  0  0
   15.8564    0.5670    0.0000 C   0  0  0  0  0  0  0  0  0  0  0  0
    4.5981    0.0670    0.0000 C   0  0  0  0  0  0  0  0  0  0  0  0
   14.9904    0.0670    0.0000 C   0  0  0  0  0  0  0  0  0  0  0  0
    2.0000   -0.4330    0.0000 C   0  0  0  0  0  0  0  0  0  0  0  0
    2.3660    0.9330    0.0000 C   0  0  0  0  0  0  0  0  0  0  0  0
    3.3660   -0.7990    0.0000 C   0  0  0  0  0  0  0  0  0  0  0  0
   17.5885   -0.4330    0.0000 C   0  0  0  0  0  0  0  0  0  0  0  0
   17.2224    0.9330    0.0000 C   0  0  0  0  0  0  0  0  0  0  0  0
   16.2224   -0.7990    0.0000 C   0  0  0  0  0  0  0  0  0  0  0  0
    5.4641    0.5670    0.0000 C   0  0  0  0  0  0  0  0  0  0  0  0
   14.1244    0.5670    0.0000 C   0  0  0  0  0  0  0  0  0  0  0  0
    6.3301    0.0670    0.0000 C   0  0  0  0  0  0  0  0  0  0  0  0
   13.2583    0.0670    0.0000 C   0  0  0  0  0  0  0  0  0  0  0  0
    7.1962    0.5670    0.0000 C   0  0  0  0  0  0  0  0  0  0  0  0
   12.3923    0.5670    0.0000 C   0  0  0  0  0  0  0  0  0  0  0  0
    8.0622    0.0670    0.0000 C   0  0  0  0  0  0  0  0  0  0  0  0
   11.5263    0.0670    0.0000 C   0  0  0  0  0  0  0  0  0  0  0  0
    4.1306    1.0419    0.0000 H   0  0  0  0  0  0  0  0  0  0  0  0
    3.3335    1.0419    0.0000 H   0  0  0  0  0  0  0  0  0  0  0  0
   16.2549    1.0419    0.0000 H   0  0  0  0  0  0  0  0  0  0  0  0
   15.4579    1.0419    0.0000 H   0  0  0  0  0  0  0  0  0  0  0  0
    4.1996   -0.4080    0.0000 H   0  0  0  0  0  0  0  0  0  0  0  0
    4.9966   -0.4080    0.0000 H   0  0  0  0  0  0  0  0  0  0  0  0
   14.5919   -0.4080    0.0000 H   0  0  0  0  0  0  0  0  0  0  0  0
   15.3889   -0.4080    0.0000 H   0  0  0  0  0  0  0  0  0  0  0  0
    1.6900    0.1039    0.0000 H   0  0  0  0  0  0  0  0  0  0  0  0
    1.4631   -0.7430    0.0000 H   0  0  0  0  0  0  0  0  0  0  0  0
    2.3100   -0.9699    0.0000 H   0  0  0  0  0  0  0  0  0  0  0  0
    2.9030    1.2430    0.0000 H   0  0  0  0  0  0  0  0  0  0  0  0
    2.0560    1.4700    0.0000 H   0  0  0  0  0  0  0  0  0  0  0  0
    1.8291    0.6230    0.0000 H   0  0  0  0  0  0  0  0  0  0  0  0
    2.8291   -1.1090    0.0000 H   0  0  0  0  0  0  0  0  0  0  0  0
    3.6760   -1.3360    0.0000 H   0  0  0  0  0  0  0  0  0  0  0  0
    3.9030   -0.4890    0.0000 H   0  0  0  0  0  0  0  0  0  0  0  0
   17.2785   -0.9699    0.0000 H   0  0  0  0  0  0  0  0  0  0  0  0
   18.1254   -0.7430    0.0000 H   0  0  0  0  0  0  0  0  0  0  0  0
   17.8985    0.1039    0.0000 H   0  0  0  0  0  0  0  0  0  0  0  0
   17.7594    0.6230    0.0000 H   0  0  0  0  0  0  0  0  0  0  0  0
   17.5324    1.4700    0.0000 H   0  0  0  0  0  0  0  0  0  0  0  0
   16.6855    1.2430    0.0000 H   0  0  0  0  0  0  0  0  0  0  0  0
   15.6855   -0.4890    0.0000 H   0  0  0  0  0  0  0  0  0  0  0  0
   15.9124   -1.3360    0.0000 H   0  0  0  0  0  0  0  0  0  0  0  0
   16.7594   -1.1090    0.0000 H   0  0  0  0  0  0  0  0  0  0  0  0
    5.8626    1.0419    0.0000 H   0  0  0  0  0  0  0  0  0  0  0  0
    5.0656    1.0419    0.0000 H   0  0  0  0  0  0  0  0  0  0  0  0
   14.5229    1.0419    0.0000 H   0  0  0  0  0  0  0  0  0  0  0  0
   13.7258    1.0419    0.0000 H   0  0  0  0  0  0  0  0  0  0  0  0
    5.9316   -0.4080    0.0000 H   0  0  0  0  0  0  0  0  0  0  0  0
    6.7287   -0.4080    0.0000 H   0  0  0  0  0  0  0  0  0  0  0  0
   12.8598   -0.4080    0.0000 H   0  0  0  0  0  0  0  0  0  0  0  0
   13.6569   -0.4080    0.0000 H   0  0  0  0  0  0  0  0  0  0  0  0
    7.5947    1.0419    0.0000 H   0  0  0  0  0  0  0  0  0  0  0  0
    6.7976    1.0419    0.0000 H   0  0  0  0  0  0  0  0  0  0  0  0
   12.7908    1.0419    0.0000 H   0  0  0  0  0  0  0  0  0  0  0  0
   11.9938    1.0419    0.0000 H   0  0  0  0  0  0  0  0  0  0  0  0
  2 24  1  0  0  0  0
  3 25  1  0  0  0  0
  4 24  2  0  0  0  0
  5 25  2  0  0  0  0
  6  8  1  0  0  0  0
  6 12  1  0  0  0  0
  6 13  1  0  0  0  0
  6 14  1  0  0  0  0
  7  9  1  0  0  0  0
  7 15  1  0  0  0  0
  7 16  1  0  0  0  0
  7 17  1  0  0  0  0
  8 10  1  0  0  0  0
  8 26  1  0  0  0  0
  8 27  1  0  0  0  0
  9 11  1  0  0  0  0
  9 28  1  0  0  0  0
  9 29  1  0  0  0  0
 10 18  1  0  0  0  0
 10 30  1  0  0  0  0
 10 31  1  0  0  0  0
 11 19  1  0  0  0  0
 11 32  1  0  0  0  0
 11 33  1  0  0  0  0
 12 34  1  0  0  0  0
 12 35  1  0  0  0  0
 12 36  1  0  0  0  0
 13 37  1  0  0  0  0
 13 38  1  0  0  0  0
 13 39  1  0  0  0  0
 14 40  1  0  0  0  0
 14 41  1  0  0  0  0
 14 42  1  0  0  0  0
 15 43  1  0  0  0  0
 15 44  1  0  0  0  0
 15 45  1  0  0  0  0
 16 46  1  0  0  0  0
 16 47  1  0  0  0  0
 16 48  1  0  0  0  0
 17 49  1  0  0  0  0
 17 50  1  0  0  0  0
 17 51  1  0  0  0  0
 18 20  1  0  0  0  0
 18 52  1  0  0  0  0
 18 53  1  0  0  0  0
 19 21  1  0  0  0  0
 19 54  1  0  0  0  0
 19 55  1  0  0  0  0
 20 22  1  0  0  0  0
 20 56  1  0  0  0  0
 20 57  1  0  0  0  0
 21 23  1  0  0  0  0
 21 58  1  0  0  0  0
 21 59  1  0  0  0  0
 22 24  1  0  0  0  0
 22 60  1  0  0  0  0
 22 61  1  0  0  0  0
 23 25  1  0  0  0  0
 23 62  1  0  0  0  0
 23 63  1  0  0  0  0
M  CHG  3   1   2   2  -1   3  -1
M  END
> <PUBCHEM_COMPOUND_CID>
21972107

> <PUBCHEM_COMPOUND_CANONICALIZED>
1

> <PUBCHEM_CACTVS_COMPLEXITY>
128

> <PUBCHEM_CACTVS_HBOND_ACCEPTOR>
4

> <PUBCHEM_CACTVS_HBOND_DONOR>
0

> <PUBCHEM_CACTVS_ROTATABLE_BOND>
10

> <PUBCHEM_CACTVS_SUBSKEYS>
AAADcfB4OAAAAAAQAAAAAAAAAAAAAAAAAAAAAAAAAAAAAAAAAAAAGgAAAAAADgCAgAACCAAAAAAIAACQCAAAAAAAAAAAAAEAAAAAABIAAAAAAAAEAAAAAAGIyOCNAAAAAAAAAAAAAAAAAAAAAAAAAAAAAA==

> <PUBCHEM_IUPAC_OPENEYE_NAME>
cobaltous;7,7-dimethyloctanoate

> <PUBCHEM_IUPAC_CAS_NAME>
cobalt(2+);7,7-dimethyloctanoate

> <PUBCHEM_IUPAC_NAME_MARKUP>
cobalt(2+);7,7-dimethyloctanoate

> <PUBCHEM_IUPAC_NAME>
cobalt(2+);7,7-dimethyloctanoate

> <PUBCHEM_IUPAC_SYSTEMATIC_NAME>
cobalt(2+);7,7-dimethyloctanoate

> <PUBCHEM_IUPAC_TRADITIONAL_NAME>
cobaltous;7,7-dimethylcaprylate

> <PUBCHEM_IUPAC_INCHI>
InChI=1S/2C10H20O2.Co/c2*1-10(2,3)8-6-4-5-7-9(11)12;/h2*4-8H2,1-3H3,(H,11,12);/q;;+2/p-2

> <PUBCHEM_IUPAC_INCHIKEY>
KDMCQAXHWIEEDE-UHFFFAOYSA-L

> <PUBCHEM_EXACT_MASS>
401.210203

> <PUBCHEM_MOLECULAR_FORMULA>
C20H38CoO4

> <PUBCHEM_MOLECULAR_WEIGHT>
401.4

> <PUBCHEM_SMILES>
CC(C)(C)CCCCCC(=O)[O-].CC(C)(C)CCCCCC(=O)[O-].[Co+2]

> <PUBCHEM_OPENEYE_CAN_SMILES>
CC(C)(C)CCCCCC(=O)[O-].CC(C)(C)CCCCCC(=O)[O-].[Co+2]

> <PUBCHEM_OPENEYE_ISO_SMILES>
CC(C)(C)CCCCCC(=O)[O-].CC(C)(C)CCCCCC(=O)[O-].[Co+2]

> <PUBCHEM_CACTVS_TPSA>
80.3

> <PUBCHEM_MONOISOTOPIC_WEIGHT>
401.210203

> <PUBCHEM_TOTAL_CHARGE>
0

> <PUBCHEM_HEAVY_ATOM_COUNT>
25

> <PUBCHEM_ATOM_DEF_STEREO_COUNT>
0

> <PUBCHEM_ATOM_UDEF_STEREO_COUNT>
0

> <PUBCHEM_BOND_DEF_STEREO_COUNT>
0

> <PUBCHEM_BOND_UDEF_STEREO_COUNT>
0

> <PUBCHEM_ISOTOPIC_ATOM_COUNT>
0

> <PUBCHEM_COMPONENT_COUNT>
3

> <PUBCHEM_CACTVS_TAUTO_COUNT>
-1

> <PUBCHEM_COORDINATE_TYPE>
1
5
255

$$$$
