21987656
  -OEChem-04042506002D

 58 61  0     0  0  0  0  0  0999 V2000
    5.4641   -2.0171    0.0000 O   0  0  0  0  0  0  0  0  0  0  0  0
   10.7224    2.0071    0.0000 O   0  0  0  0  0  0  0  0  0  0  0  0
    4.5981   -0.5171    0.0000 N   0  0  0  0  0  0  0  0  0  0  0  0
   11.5942    0.5104    0.0000 N   0  0  0  0  0  0  0  0  0  0  0  0
    3.7320   -1.0171    0.0000 C   0  0  0  0  0  0  0  0  0  0  0  0
   12.4583    1.0138    0.0000 C   0  0  0  0  0  0  0  0  0  0  0  0
    2.8660   -0.5171    0.0000 C   0  0  0  0  0  0  0  0  0  0  0  0
    3.7320   -2.0171    0.0000 C   0  0  0  0  0  0  0  0  0  0  0  0
   12.4545    2.0137    0.0000 C   0  0  0  0  0  0  0  0  0  0  0  0
   13.3263    0.5171    0.0000 C   0  0  0  0  0  0  0  0  0  0  0  0
    2.0000   -1.0171    0.0000 C   0  0  0  0  0  0  0  0  0  0  0  0
    2.8660   -2.5171    0.0000 C   0  0  0  0  0  0  0  0  0  0  0  0
   13.3186    2.5171    0.0000 C   0  0  0  0  0  0  0  0  0  0  0  0
   14.1904    1.0204    0.0000 C   0  0  0  0  0  0  0  0  0  0  0  0
    2.0000   -2.0171    0.0000 C   0  0  0  0  0  0  0  0  0  0  0  0
   14.1865    2.0204    0.0000 C   0  0  0  0  0  0  0  0  0  0  0  0
    5.4641   -1.0171    0.0000 C   0  0  0  0  0  0  0  0  0  0  0  0
   10.7263    1.0071    0.0000 C   0  0  0  0  0  0  0  0  0  0  0  0
    6.3301   -0.5171    0.0000 C   0  0  0  0  0  0  0  0  0  0  0  0
    9.8622    0.5037    0.0000 C   0  0  0  0  0  0  0  0  0  0  0  0
    8.0622   -0.5171    0.0000 C   0  0  0  0  0  0  0  0  0  0  0  0
    8.0622    0.4829    0.0000 C   0  0  0  0  0  0  0  0  0  0  0  0
    7.1962   -1.0171    0.0000 C   0  0  0  0  0  0  0  0  0  0  0  0
    8.9561    1.0176    0.0000 C   0  0  0  0  0  0  0  0  0  0  0  0
    6.3301    0.4829    0.0000 C   0  0  0  0  0  0  0  0  0  0  0  0
    9.8622   -0.5379    0.0000 C   0  0  0  0  0  0  0  0  0  0  0  0
    7.1962    0.9829    0.0000 C   0  0  0  0  0  0  0  0  0  0  0  0
    8.9561   -1.0517    0.0000 C   0  0  0  0  0  0  0  0  0  0  0  0
    3.7320   -0.3971    0.0000 H   0  0  0  0  0  0  0  0  0  0  0  0
   11.9202    1.3217    0.0000 H   0  0  0  0  0  0  0  0  0  0  0  0
    3.2646   -0.0421    0.0000 H   0  0  0  0  0  0  0  0  0  0  0  0
    2.4675   -0.0421    0.0000 H   0  0  0  0  0  0  0  0  0  0  0  0
    3.9441   -2.5997    0.0000 H   0  0  0  0  0  0  0  0  0  0  0  0
    4.3426   -1.9094    0.0000 H   0  0  0  0  0  0  0  0  0  0  0  0
   12.2402    2.5955    0.0000 H   0  0  0  0  0  0  0  0  0  0  0  0
   11.8443    1.9037    0.0000 H   0  0  0  0  0  0  0  0  0  0  0  0
   12.9296    0.0406    0.0000 H   0  0  0  0  0  0  0  0  0  0  0  0
   13.7266    0.0437    0.0000 H   0  0  0  0  0  0  0  0  0  0  0  0
    1.7880   -0.4345    0.0000 H   0  0  0  0  0  0  0  0  0  0  0  0
    1.3894   -1.1247    0.0000 H   0  0  0  0  0  0  0  0  0  0  0  0
    2.4675   -2.9920    0.0000 H   0  0  0  0  0  0  0  0  0  0  0  0
    3.2646   -2.9920    0.0000 H   0  0  0  0  0  0  0  0  0  0  0  0
   13.7152    2.9936    0.0000 H   0  0  0  0  0  0  0  0  0  0  0  0
   12.9182    2.9905    0.0000 H   0  0  0  0  0  0  0  0  0  0  0  0
   14.4047    0.4386    0.0000 H   0  0  0  0  0  0  0  0  0  0  0  0
   14.8005    1.1304    0.0000 H   0  0  0  0  0  0  0  0  0  0  0  0
    1.3894   -1.9094    0.0000 H   0  0  0  0  0  0  0  0  0  0  0  0
    1.7880   -2.5997    0.0000 H   0  0  0  0  0  0  0  0  0  0  0  0
   14.7975    1.9151    0.0000 H   0  0  0  0  0  0  0  0  0  0  0  0
   14.3963    2.6038    0.0000 H   0  0  0  0  0  0  0  0  0  0  0  0
    4.5981    0.1029    0.0000 H   0  0  0  0  0  0  0  0  0  0  0  0
   11.5966   -0.1096    0.0000 H   0  0  0  0  0  0  0  0  0  0  0  0
    7.1962   -1.6371    0.0000 H   0  0  0  0  0  0  0  0  0  0  0  0
    8.9490    1.6375    0.0000 H   0  0  0  0  0  0  0  0  0  0  0  0
    5.7932    0.7929    0.0000 H   0  0  0  0  0  0  0  0  0  0  0  0
   10.3979   -0.8500    0.0000 H   0  0  0  0  0  0  0  0  0  0  0  0
    7.1962    1.6029    0.0000 H   0  0  0  0  0  0  0  0  0  0  0  0
    8.9490   -1.6717    0.0000 H   0  0  0  0  0  0  0  0  0  0  0  0
  1 17  2  0  0  0  0
  2 18  2  0  0  0  0
  3  5  1  0  0  0  0
  3 17  1  0  0  0  0
  3 51  1  0  0  0  0
  4  6  1  0  0  0  0
  4 18  1  0  0  0  0
  4 52  1  0  0  0  0
  5  7  1  0  0  0  0
  5  8  1  0  0  0  0
  5 29  1  0  0  0  0
  6  9  1  0  0  0  0
  6 10  1  0  0  0  0
  6 30  1  0  0  0  0
  7 11  1  0  0  0  0
  7 31  1  0  0  0  0
  7 32  1  0  0  0  0
  8 12  1  0  0  0  0
  8 33  1  0  0  0  0
  8 34  1  0  0  0  0
  9 13  1  0  0  0  0
  9 35  1  0  0  0  0
  9 36  1  0  0  0  0
 10 14  1  0  0  0  0
 10 37  1  0  0  0  0
 10 38  1  0  0  0  0
 11 15  1  0  0  0  0
 11 39  1  0  0  0  0
 11 40  1  0  0  0  0
 12 15  1  0  0  0  0
 12 41  1  0  0  0  0
 12 42  1  0  0  0  0
 13 16  1  0  0  0  0
 13 43  1  0  0  0  0
 13 44  1  0  0  0  0
 14 16  1  0  0  0  0
 14 45  1  0  0  0  0
 14 46  1  0  0  0  0
 15 47  1  0  0  0  0
 15 48  1  0  0  0  0
 16 49  1  0  0  0  0
 16 50  1  0  0  0  0
 17 19  1  0  0  0  0
 18 20  1  0  0  0  0
 19 23  2  0  0  0  0
 19 25  1  0  0  0  0
 20 24  2  0  0  0  0
 20 26  1  0  0  0  0
 21 22  2  0  0  0  0
 21 23  1  0  0  0  0
 21 28  1  0  0  0  0
 22 24  1  0  0  0  0
 22 27  1  0  0  0  0
 23 53  1  0  0  0  0
 24 54  1  0  0  0  0
 25 27  2  0  0  0  0
 25 55  1  0  0  0  0
 26 28  2  0  0  0  0
 26 56  1  0  0  0  0
 27 57  1  0  0  0  0
 28 58  1  0  0  0  0
M  END
> <PUBCHEM_COMPOUND_CID>
21987656

> <PUBCHEM_COMPOUND_CANONICALIZED>
1

> <PUBCHEM_CACTVS_COMPLEXITY>
489

> <PUBCHEM_CACTVS_HBOND_ACCEPTOR>
2

> <PUBCHEM_CACTVS_HBOND_DONOR>
2

> <PUBCHEM_CACTVS_ROTATABLE_BOND>
4

> <PUBCHEM_CACTVS_SUBSKEYS>
AAADceB7MAAAAAAAAAAAAAAAAAAAAAAAAAAwYMGAAAAAAADBUAAAHgAQAAAADCjBmAQwAMLAAACIAiFSEACCAAAkAAAIiIEIBMgIIDKAlRGEIQhglgCIiYcYiMCOwAACAAAQAACAAAQAACAAAAAAAAAAAA==

> <PUBCHEM_IUPAC_OPENEYE_NAME>
N2,N6-dicyclohexylnaphthalene-2,6-dicarboxamide

> <PUBCHEM_IUPAC_CAS_NAME>
N2,N6-dicyclohexylnaphthalene-2,6-dicarboxamide

> <PUBCHEM_IUPAC_NAME_MARKUP>
2-<I>N</I>,6-<I>N</I>-dicyclohexylnaphthalene-2,6-dicarboxamide

> <PUBCHEM_IUPAC_NAME>
2-N,6-N-dicyclohexylnaphthalene-2,6-dicarboxamide

> <PUBCHEM_IUPAC_SYSTEMATIC_NAME>
N2,N6-dicyclohexylnaphthalene-2,6-dicarboxamide

> <PUBCHEM_IUPAC_TRADITIONAL_NAME>
N,N'-dicyclohexylnaphthalene-2,6-dicarboxamide

> <PUBCHEM_IUPAC_INCHI>
InChI=1S/C24H30N2O2/c27-23(25-21-7-3-1-4-8-21)19-13-11-18-16-20(14-12-17(18)15-19)24(28)26-22-9-5-2-6-10-22/h11-16,21-22H,1-10H2,(H,25,27)(H,26,28)

> <PUBCHEM_IUPAC_INCHIKEY>
MBSRTKPGZKQXQR-UHFFFAOYSA-N

> <PUBCHEM_XLOGP3_AA>
5.3

> <PUBCHEM_EXACT_MASS>
378.230728204

> <PUBCHEM_MOLECULAR_FORMULA>
C24H30N2O2

> <PUBCHEM_MOLECULAR_WEIGHT>
378.5

> <PUBCHEM_SMILES>
C1CCC(CC1)NC(=O)C2=CC3=C(C=C2)C=C(C=C3)C(=O)NC4CCCCC4

> <PUBCHEM_OPENEYE_CAN_SMILES>
C1CCC(CC1)NC(=O)C2=CC3=C(C=C2)C=C(C=C3)C(=O)NC4CCCCC4

> <PUBCHEM_OPENEYE_ISO_SMILES>
C1CCC(CC1)NC(=O)C2=CC3=C(C=C2)C=C(C=C3)C(=O)NC4CCCCC4

> <PUBCHEM_CACTVS_TPSA>
58.2

> <PUBCHEM_MONOISOTOPIC_WEIGHT>
378.230728204

> <PUBCHEM_TOTAL_CHARGE>
0

> <PUBCHEM_HEAVY_ATOM_COUNT>
28

> <PUBCHEM_ATOM_DEF_STEREO_COUNT>
0

> <PUBCHEM_ATOM_UDEF_STEREO_COUNT>
0

> <PUBCHEM_BOND_DEF_STEREO_COUNT>
0

> <PUBCHEM_BOND_UDEF_STEREO_COUNT>
0

> <PUBCHEM_ISOTOPIC_ATOM_COUNT>
0

> <PUBCHEM_COMPONENT_COUNT>
1

> <PUBCHEM_CACTVS_TAUTO_COUNT>
-1

> <PUBCHEM_COORDINATE_TYPE>
1
5
255

> <PUBCHEM_BONDANNOTATIONS>
19  23  8
19  25  8
20  24  8
20  26  8
21  22  8
21  23  8
21  28  8
22  24  8
22  27  8
25  27  8
26  28  8

$$$$
