230396
  -OEChem-04042512432D

121123  0     1  0  0  0  0  0999 V2000
    7.1962    1.1029    0.0000 O   0  0  0  0  0  0  0  0  0  0  0  0
    5.4641   -0.8971    0.0000 O   0  0  0  0  0  0  0  0  0  0  0  0
    8.9282    1.1029    0.0000 O   0  0  0  0  0  0  0  0  0  0  0  0
    6.3301   -2.3971    0.0000 O   0  0  0  0  0  0  0  0  0  0  0  0
    8.0622    3.6029    0.0000 O   0  0  0  0  0  0  0  0  0  0  0  0
    7.1962   -1.8971    0.0000 O   0  0  0  0  0  0  0  0  0  0  0  0
    8.9282   -0.8971    0.0000 O   0  0  0  0  0  0  0  0  0  0  0  0
   10.6603    2.1029    0.0000 O   0  0  0  0  0  0  0  0  0  0  0  0
    3.7320   -1.8971    0.0000 O   0  0  0  0  0  0  0  0  0  0  0  0
    3.7320   -3.8971    0.0000 O   0  0  0  0  0  0  0  0  0  0  0  0
    5.4641   -4.8971    0.0000 O   0  0  0  0  0  0  0  0  0  0  0  0
   10.6603    4.1029    0.0000 O   0  0  0  0  0  0  0  0  0  0  0  0
    5.4641    2.1029    0.0000 O   0  0  0  0  0  0  0  0  0  0  0  0
    8.9282    5.1029    0.0000 O   0  0  0  0  0  0  0  0  0  0  0  0
    6.3301    2.6029    0.0000 O   0  0  0  0  0  0  0  0  0  0  0  0
    7.1962   -4.8971    0.0000 O   0  0  0  0  0  0  0  0  0  0  0  0
    8.9282   -1.8971    0.0000 O   0  0  0  0  0  0  0  0  0  0  0  0
    9.7942    0.6029    0.0000 O   0  0  0  0  0  0  0  0  0  0  0  0
   11.5263    3.6029    0.0000 O   0  0  0  0  0  0  0  0  0  0  0  0
    2.8660   -3.3971    0.0000 O   0  0  0  0  0  0  0  0  0  0  0  0
    4.5981   -5.3971    0.0000 O   0  0  0  0  0  0  0  0  0  0  0  0
    6.7909   -6.0105    0.0000 O   0  0  0  0  0  0  0  0  0  0  0  0
    9.7942    5.6029    0.0000 O   0  0  0  0  0  0  0  0  0  0  0  0
    3.7320    2.1029    0.0000 O   0  0  0  0  0  0  0  0  0  0  0  0
    7.1962    5.1029    0.0000 O   0  0  0  0  0  0  0  0  0  0  0  0
    7.1962    4.1029    0.0000 O   0  0  0  0  0  0  0  0  0  0  0  0
    8.9282   -4.8971    0.0000 O   0  0  0  0  0  0  0  0  0  0  0  0
    6.3301   -0.3971    0.0000 C   0  0  3  0  0  0  0  0  0  0  0  0
    7.1962   -0.8971    0.0000 C   0  0  3  0  0  0  0  0  0  0  0  0
    8.0622   -0.3971    0.0000 C   0  0  3  0  0  0  0  0  0  0  0  0
    6.3301    0.6029    0.0000 C   0  0  3  0  0  0  0  0  0  0  0  0
    8.0622    0.6029    0.0000 C   0  0  3  0  0  0  0  0  0  0  0  0
    8.9282    2.1029    0.0000 C   0  0  3  0  0  0  0  0  0  0  0  0
    5.4641   -1.8971    0.0000 C   0  0  3  0  0  0  0  0  0  0  0  0
    9.7942    2.6029    0.0000 C   0  0  3  0  0  0  0  0  0  0  0  0
    4.5981   -2.3971    0.0000 C   0  0  3  0  0  0  0  0  0  0  0  0
    8.0622    2.6029    0.0000 C   0  0  3  0  0  0  0  0  0  0  0  0
    4.5981   -3.3971    0.0000 C   0  0  3  0  0  0  0  0  0  0  0  0
    5.4641   -3.8971    0.0000 C   0  0  3  0  0  0  0  0  0  0  0  0
    9.7942    3.6029    0.0000 C   0  0  3  0  0  0  0  0  0  0  0  0
    6.3301   -3.3971    0.0000 C   0  0  3  0  0  0  0  0  0  0  0  0
    5.4641    1.1029    0.0000 C   0  0  0  0  0  0  0  0  0  0  0  0
    8.9282    4.1029    0.0000 C   0  0  3  0  0  0  0  0  0  0  0  0
    7.1962    2.1029    0.0000 C   0  0  0  0  0  0  0  0  0  0  0  0
    7.1962   -3.8971    0.0000 C   0  0  0  0  0  0  0  0  0  0  0  0
    8.0622   -2.3971    0.0000 C   0  0  0  0  0  0  0  0  0  0  0  0
    9.7942   -0.3971    0.0000 C   0  0  0  0  0  0  0  0  0  0  0  0
   11.5263    2.6029    0.0000 C   0  0  0  0  0  0  0  0  0  0  0  0
    2.8660   -2.3971    0.0000 C   0  0  0  0  0  0  0  0  0  0  0  0
    3.7320   -4.8971    0.0000 C   0  0  0  0  0  0  0  0  0  0  0  0
    5.8061   -5.8368    0.0000 C   0  0  0  0  0  0  0  0  0  0  0  0
   10.6603    5.1029    0.0000 C   0  0  0  0  0  0  0  0  0  0  0  0
    8.0622   -3.3971    0.0000 C   0  0  0  0  0  0  0  0  0  0  0  0
    4.5981    2.6029    0.0000 C   0  0  0  0  0  0  0  0  0  0  0  0
   10.6603   -0.8971    0.0000 C   0  0  0  0  0  0  0  0  0  0  0  0
    8.0622    5.6029    0.0000 C   0  0  0  0  0  0  0  0  0  0  0  0
   12.3923    2.1029    0.0000 C   0  0  0  0  0  0  0  0  0  0  0  0
    6.3301    3.6029    0.0000 C   0  0  0  0  0  0  0  0  0  0  0  0
    2.0000   -1.8971    0.0000 C   0  0  0  0  0  0  0  0  0  0  0  0
    2.8660   -5.3971    0.0000 C   0  0  0  0  0  0  0  0  0  0  0  0
    8.0622   -5.3971    0.0000 C   0  0  0  0  0  0  0  0  0  0  0  0
    5.1633   -6.6029    0.0000 C   0  0  0  0  0  0  0  0  0  0  0  0
   11.5263    5.6029    0.0000 C   0  0  0  0  0  0  0  0  0  0  0  0
    4.5981    3.6029    0.0000 C   0  0  0  0  0  0  0  0  0  0  0  0
    8.0622    6.6029    0.0000 C   0  0  0  0  0  0  0  0  0  0  0  0
    5.4641    4.1029    0.0000 C   0  0  0  0  0  0  0  0  0  0  0  0
    8.0622   -6.3971    0.0000 C   0  0  0  0  0  0  0  0  0  0  0  0
    5.7932   -0.0871    0.0000 H   0  0  0  0  0  0  0  0  0  0  0  0
    6.6592   -1.2071    0.0000 H   0  0  0  0  0  0  0  0  0  0  0  0
    8.0622   -1.0171    0.0000 H   0  0  0  0  0  0  0  0  0  0  0  0
    6.3301    1.2229    0.0000 H   0  0  0  0  0  0  0  0  0  0  0  0
    8.0622    1.2229    0.0000 H   0  0  0  0  0  0  0  0  0  0  0  0
    9.4651    1.7929    0.0000 H   0  0  0  0  0  0  0  0  0  0  0  0
    4.9272   -1.5871    0.0000 H   0  0  0  0  0  0  0  0  0  0  0  0
   10.3312    2.9129    0.0000 H   0  0  0  0  0  0  0  0  0  0  0  0
    5.1350   -2.7071    0.0000 H   0  0  0  0  0  0  0  0  0  0  0  0
    7.5252    2.9129    0.0000 H   0  0  0  0  0  0  0  0  0  0  0  0
    4.5981   -4.0171    0.0000 H   0  0  0  0  0  0  0  0  0  0  0  0
    6.0010   -4.2071    0.0000 H   0  0  0  0  0  0  0  0  0  0  0  0
   10.3312    3.2929    0.0000 H   0  0  0  0  0  0  0  0  0  0  0  0
    6.8671   -3.0871    0.0000 H   0  0  0  0  0  0  0  0  0  0  0  0
    4.8535    1.2105    0.0000 H   0  0  0  0  0  0  0  0  0  0  0  0
    5.2520    0.5203    0.0000 H   0  0  0  0  0  0  0  0  0  0  0  0
    9.4651    4.4129    0.0000 H   0  0  0  0  0  0  0  0  0  0  0  0
    6.7976    1.6279    0.0000 H   0  0  0  0  0  0  0  0  0  0  0  0
    7.5947    1.6279    0.0000 H   0  0  0  0  0  0  0  0  0  0  0  0
    7.8067   -4.0048    0.0000 H   0  0  0  0  0  0  0  0  0  0  0  0
    7.4082   -3.3145    0.0000 H   0  0  0  0  0  0  0  0  0  0  0  0
    7.4422   -3.3971    0.0000 H   0  0  0  0  0  0  0  0  0  0  0  0
    8.0622   -4.0171    0.0000 H   0  0  0  0  0  0  0  0  0  0  0  0
    8.6822   -3.3971    0.0000 H   0  0  0  0  0  0  0  0  0  0  0  0
   10.3503   -1.4341    0.0000 H   0  0  0  0  0  0  0  0  0  0  0  0
   11.1972   -1.2071    0.0000 H   0  0  0  0  0  0  0  0  0  0  0  0
   10.9703   -0.3602    0.0000 H   0  0  0  0  0  0  0  0  0  0  0  0
   12.0823    1.5659    0.0000 H   0  0  0  0  0  0  0  0  0  0  0  0
   12.9292    1.7929    0.0000 H   0  0  0  0  0  0  0  0  0  0  0  0
   12.7023    2.6398    0.0000 H   0  0  0  0  0  0  0  0  0  0  0  0
    2.3100   -1.3602    0.0000 H   0  0  0  0  0  0  0  0  0  0  0  0
    1.4631   -1.5871    0.0000 H   0  0  0  0  0  0  0  0  0  0  0  0
    1.6900   -2.4341    0.0000 H   0  0  0  0  0  0  0  0  0  0  0  0
    2.5560   -4.8602    0.0000 H   0  0  0  0  0  0  0  0  0  0  0  0
    2.3291   -5.7071    0.0000 H   0  0  0  0  0  0  0  0  0  0  0  0
    3.1760   -5.9341    0.0000 H   0  0  0  0  0  0  0  0  0  0  0  0
    4.6884   -6.2043    0.0000 H   0  0  0  0  0  0  0  0  0  0  0  0
    4.7648   -7.0778    0.0000 H   0  0  0  0  0  0  0  0  0  0  0  0
    5.6383   -7.0014    0.0000 H   0  0  0  0  0  0  0  0  0  0  0  0
   11.8363    5.0659    0.0000 H   0  0  0  0  0  0  0  0  0  0  0  0
   12.0632    5.9129    0.0000 H   0  0  0  0  0  0  0  0  0  0  0  0
   11.2163    6.1398    0.0000 H   0  0  0  0  0  0  0  0  0  0  0  0
    5.2181    3.6029    0.0000 H   0  0  0  0  0  0  0  0  0  0  0  0
    4.5981    4.2229    0.0000 H   0  0  0  0  0  0  0  0  0  0  0  0
    3.9781    3.6029    0.0000 H   0  0  0  0  0  0  0  0  0  0  0  0
    8.6822    6.6029    0.0000 H   0  0  0  0  0  0  0  0  0  0  0  0
    8.0622    7.2229    0.0000 H   0  0  0  0  0  0  0  0  0  0  0  0
    7.4422    6.6029    0.0000 H   0  0  0  0  0  0  0  0  0  0  0  0
    5.7741    4.6398    0.0000 H   0  0  0  0  0  0  0  0  0  0  0  0
    4.9272    4.4129    0.0000 H   0  0  0  0  0  0  0  0  0  0  0  0
    5.1541    3.5659    0.0000 H   0  0  0  0  0  0  0  0  0  0  0  0
    7.4422   -6.3971    0.0000 H   0  0  0  0  0  0  0  0  0  0  0  0
    8.0622   -7.0171    0.0000 H   0  0  0  0  0  0  0  0  0  0  0  0
    8.6822   -6.3971    0.0000 H   0  0  0  0  0  0  0  0  0  0  0  0
  1 31  1  0  0  0  0
  1 32  1  0  0  0  0
  2 28  1  0  0  0  0
  2 34  1  0  0  0  0
  3 32  1  0  0  0  0
  3 33  1  0  0  0  0
  4 34  1  0  0  0  0
  4 41  1  0  0  0  0
  5 37  1  0  0  0  0
  5 43  1  0  0  0  0
  6 29  1  0  0  0  0
  6 46  1  0  0  0  0
  7 30  1  0  0  0  0
  7 47  1  0  0  0  0
  8 35  1  0  0  0  0
  8 48  1  0  0  0  0
  9 36  1  0  0  0  0
  9 49  1  0  0  0  0
 10 38  1  0  0  0  0
 10 50  1  0  0  0  0
 11 39  1  0  0  0  0
 11 51  1  0  0  0  0
 12 40  1  0  0  0  0
 12 52  1  0  0  0  0
 13 42  1  0  0  0  0
 13 54  1  0  0  0  0
 14 43  1  0  0  0  0
 14 56  1  0  0  0  0
 15 44  1  0  0  0  0
 15 58  1  0  0  0  0
 16 45  1  0  0  0  0
 16 61  1  0  0  0  0
 17 46  2  0  0  0  0
 18 47  2  0  0  0  0
 19 48  2  0  0  0  0
 20 49  2  0  0  0  0
 21 50  2  0  0  0  0
 22 51  2  0  0  0  0
 23 52  2  0  0  0  0
 24 54  2  0  0  0  0
 25 56  2  0  0  0  0
 26 58  2  0  0  0  0
 27 61  2  0  0  0  0
 28 29  1  0  0  0  0
 28 31  1  0  0  0  0
 28 68  1  0  0  0  0
 29 30  1  0  0  0  0
 29 69  1  0  0  0  0
 30 32  1  0  0  0  0
 30 70  1  0  0  0  0
 31 42  1  0  0  0  0
 31 71  1  0  0  0  0
 32 72  1  0  0  0  0
 33 35  1  0  0  0  0
 33 37  1  0  0  0  0
 33 73  1  0  0  0  0
 34 36  1  0  0  0  0
 34 74  1  0  0  0  0
 35 40  1  0  0  0  0
 35 75  1  0  0  0  0
 36 38  1  0  0  0  0
 36 76  1  0  0  0  0
 37 44  1  0  0  0  0
 37 77  1  0  0  0  0
 38 39  1  0  0  0  0
 38 78  1  0  0  0  0
 39 41  1  0  0  0  0
 39 79  1  0  0  0  0
 40 43  1  0  0  0  0
 40 80  1  0  0  0  0
 41 45  1  0  0  0  0
 41 81  1  0  0  0  0
 42 82  1  0  0  0  0
 42 83  1  0  0  0  0
 43 84  1  0  0  0  0
 44 85  1  0  0  0  0
 44 86  1  0  0  0  0
 45 87  1  0  0  0  0
 45 88  1  0  0  0  0
 46 53  1  0  0  0  0
 47 55  1  0  0  0  0
 48 57  1  0  0  0  0
 49 59  1  0  0  0  0
 50 60  1  0  0  0  0
 51 62  1  0  0  0  0
 52 63  1  0  0  0  0
 53 89  1  0  0  0  0
 53 90  1  0  0  0  0
 53 91  1  0  0  0  0
 54 64  1  0  0  0  0
 55 92  1  0  0  0  0
 55 93  1  0  0  0  0
 55 94  1  0  0  0  0
 56 65  1  0  0  0  0
 57 95  1  0  0  0  0
 57 96  1  0  0  0  0
 57 97  1  0  0  0  0
 58 66  1  0  0  0  0
 59 98  1  0  0  0  0
 59 99  1  0  0  0  0
 59100  1  0  0  0  0
 60101  1  0  0  0  0
 60102  1  0  0  0  0
 60103  1  0  0  0  0
 61 67  1  0  0  0  0
 62104  1  0  0  0  0
 62105  1  0  0  0  0
 62106  1  0  0  0  0
 63107  1  0  0  0  0
 63108  1  0  0  0  0
 63109  1  0  0  0  0
 64110  1  0  0  0  0
 64111  1  0  0  0  0
 64112  1  0  0  0  0
 65113  1  0  0  0  0
 65114  1  0  0  0  0
 65115  1  0  0  0  0
 66116  1  0  0  0  0
 66117  1  0  0  0  0
 66118  1  0  0  0  0
 67119  1  0  0  0  0
 67120  1  0  0  0  0
 67121  1  0  0  0  0
M  END
> <PUBCHEM_COMPOUND_CID>
230396

> <PUBCHEM_COMPOUND_CANONICALIZED>
1

> <PUBCHEM_CACTVS_COMPLEXITY>
1850

> <PUBCHEM_CACTVS_HBOND_ACCEPTOR>
27

> <PUBCHEM_CACTVS_HBOND_DONOR>
0

> <PUBCHEM_CACTVS_ROTATABLE_BOND>
29

> <PUBCHEM_CACTVS_SUBSKEYS>
AAADcfB8PgAAAAAAAAAAAAAAAAAAAAAAAAAkSJAAAAAAAAAAAAAAGgAAAAAACBSwgAMCCAAABAAIAACQCAAAAAAAAAAAAAAAAAARAAIAAAAiAAAFAAAGAAHAYAwAAAAAAAAAAAAAAAAAAAAAAAAAAAAAAA==

> <PUBCHEM_IUPAC_OPENEYE_NAME>
[4,5-diacetoxy-3-[3,4,5-triacetoxy-6-(acetoxymethyl)tetrahydropyran-2-yl]oxy-6-[4,5,6-triacetoxy-2-(acetoxymethyl)tetrahydropyran-3-yl]oxy-tetrahydropyran-2-yl]methyl acetate

> <PUBCHEM_IUPAC_CAS_NAME>
acetic acid [4,5-diacetyloxy-3-[[3,4,5-triacetyloxy-6-(acetyloxymethyl)-2-oxanyl]oxy]-6-[[4,5,6-triacetyloxy-2-(acetyloxymethyl)-3-oxanyl]oxy]-2-oxanyl]methyl ester

> <PUBCHEM_IUPAC_NAME_MARKUP>
[4,5-diacetyloxy-3-[3,4,5-triacetyloxy-6-(acetyloxymethyl)oxan-2-yl]oxy-6-[4,5,6-triacetyloxy-2-(acetyloxymethyl)oxan-3-yl]oxyoxan-2-yl]methyl acetate

> <PUBCHEM_IUPAC_NAME>
[4,5-diacetyloxy-3-[3,4,5-triacetyloxy-6-(acetyloxymethyl)oxan-2-yl]oxy-6-[4,5,6-triacetyloxy-2-(acetyloxymethyl)oxan-3-yl]oxyoxan-2-yl]methyl acetate

> <PUBCHEM_IUPAC_SYSTEMATIC_NAME>
[4,5-diacetyloxy-3-[3,4,5-triacetyloxy-6-(acetyloxymethyl)oxan-2-yl]oxy-6-[4,5,6-triacetyloxy-2-(acetyloxymethyl)oxan-3-yl]oxy-oxan-2-yl]methyl ethanoate

> <PUBCHEM_IUPAC_TRADITIONAL_NAME>
acetic acid [4,5-diacetoxy-3-[3,4,5-triacetoxy-6-(acetoxymethyl)tetrahydropyran-2-yl]oxy-6-[4,5,6-triacetoxy-2-(acetoxymethyl)tetrahydropyran-3-yl]oxy-tetrahydropyran-2-yl]methyl ester

> <PUBCHEM_IUPAC_INCHI>
InChI=1S/C40H54O27/c1-15(41)52-12-26-29(55-18(4)44)32(56-19(5)45)36(60-23(9)49)39(64-26)67-31-28(14-54-17(3)43)65-40(37(61-24(10)50)34(31)58-21(7)47)66-30-27(13-53-16(2)42)63-38(62-25(11)51)35(59-22(8)48)33(30)57-20(6)46/h26-40H,12-14H2,1-11H3

> <PUBCHEM_IUPAC_INCHIKEY>
NNLVGZFZQQXQNW-UHFFFAOYSA-N

> <PUBCHEM_XLOGP3_AA>
-1.1

> <PUBCHEM_EXACT_MASS>
966.28524644

> <PUBCHEM_MOLECULAR_FORMULA>
C40H54O27

> <PUBCHEM_MOLECULAR_WEIGHT>
966.8

> <PUBCHEM_SMILES>
CC(=O)OCC1C(C(C(C(O1)OC2C(OC(C(C2OC(=O)C)OC(=O)C)OC(=O)C)COC(=O)C)OC(=O)C)OC(=O)C)OC3C(C(C(C(O3)COC(=O)C)OC(=O)C)OC(=O)C)OC(=O)C

> <PUBCHEM_OPENEYE_CAN_SMILES>
CC(=O)OCC1C(C(C(C(O1)OC2C(OC(C(C2OC(=O)C)OC(=O)C)OC(=O)C)COC(=O)C)OC(=O)C)OC(=O)C)OC3C(C(C(C(O3)COC(=O)C)OC(=O)C)OC(=O)C)OC(=O)C

> <PUBCHEM_OPENEYE_ISO_SMILES>
CC(=O)OCC1C(C(C(C(O1)OC2C(OC(C(C2OC(=O)C)OC(=O)C)OC(=O)C)COC(=O)C)OC(=O)C)OC(=O)C)OC3C(C(C(C(O3)COC(=O)C)OC(=O)C)OC(=O)C)OC(=O)C

> <PUBCHEM_CACTVS_TPSA>
335

> <PUBCHEM_MONOISOTOPIC_WEIGHT>
966.28524644

> <PUBCHEM_TOTAL_CHARGE>
0

> <PUBCHEM_HEAVY_ATOM_COUNT>
67

> <PUBCHEM_ATOM_DEF_STEREO_COUNT>
0

> <PUBCHEM_ATOM_UDEF_STEREO_COUNT>
15

> <PUBCHEM_BOND_DEF_STEREO_COUNT>
0

> <PUBCHEM_BOND_UDEF_STEREO_COUNT>
0

> <PUBCHEM_ISOTOPIC_ATOM_COUNT>
0

> <PUBCHEM_COMPONENT_COUNT>
1

> <PUBCHEM_CACTVS_TAUTO_COUNT>
-1

> <PUBCHEM_COORDINATE_TYPE>
1
5
255

> <PUBCHEM_BONDANNOTATIONS>
38  10  3
39  11  3
40  12  3
43  14  3
28  2  3
34  2  3
32  3  3
33  3  3
31  42  3
37  44  3
41  45  3
29  6  3
30  7  3
35  8  3
36  9  3

$$$$
