23674278
  -OEChem-04042505362D

 77 78  0     0  0  0  0  0  0999 V2000
    5.9803    1.4063    0.0000 P   0  0  0  0  0  0  0  0  0  0  0  0
    5.7542    3.1236    0.0000 Na  0  3  0  0  0  0  0  0  0  0  0  0
    5.0564    1.0236    0.0000 O   0  0  0  0  0  0  0  0  0  0  0  0
    6.9042    1.0236    0.0000 O   0  0  0  0  0  0  0  0  0  0  0  0
    6.3630    2.3302    0.0000 O   0  5  0  0  0  0  0  0  0  0  0  0
    5.5976    2.3302    0.0000 O   0  0  0  0  0  0  0  0  0  0  0  0
    3.2713    1.1799    0.0000 C   0  0  0  0  0  0  0  0  0  0  0  0
    8.6893    1.1799    0.0000 C   0  0  0  0  0  0  0  0  0  0  0  0
    3.6432    0.2516    0.0000 C   0  0  0  0  0  0  0  0  0  0  0  0
    8.3174    0.2516    0.0000 C   0  0  0  0  0  0  0  0  0  0  0  0
    2.7957   -2.3279    0.0000 C   0  0  0  0  0  0  0  0  0  0  0  0
    9.1649   -2.3279    0.0000 C   0  0  0  0  0  0  0  0  0  0  0  0
    5.0564   -0.8241    0.0000 C   0  0  0  0  0  0  0  0  0  0  0  0
    6.9042   -0.8241    0.0000 C   0  0  0  0  0  0  0  0  0  0  0  0
    5.9803   -1.2068    0.0000 C   0  0  0  0  0  0  0  0  0  0  0  0
    3.4014   -1.5322    0.0000 C   0  0  0  0  0  0  0  0  0  0  0  0
    8.5592   -1.5322    0.0000 C   0  0  0  0  0  0  0  0  0  0  0  0
    4.6737    0.0998    0.0000 C   0  0  0  0  0  0  0  0  0  0  0  0
    7.2869    0.0998    0.0000 C   0  0  0  0  0  0  0  0  0  0  0  0
    3.0028   -0.5698    0.0000 C   0  0  0  0  0  0  0  0  0  0  0  0
    8.9578   -0.5698    0.0000 C   0  0  0  0  0  0  0  0  0  0  0  0
    4.4351   -1.6602    0.0000 C   0  0  0  0  0  0  0  0  0  0  0  0
    7.5255   -1.6602    0.0000 C   0  0  0  0  0  0  0  0  0  0  0  0
    2.8993    2.1081    0.0000 C   0  0  0  0  0  0  0  0  0  0  0  0
    2.3430    0.8079    0.0000 C   0  0  0  0  0  0  0  0  0  0  0  0
    4.1995    1.5518    0.0000 C   0  0  0  0  0  0  0  0  0  0  0  0
    9.0613    2.1081    0.0000 C   0  0  0  0  0  0  0  0  0  0  0  0
    9.6176    0.8079    0.0000 C   0  0  0  0  0  0  0  0  0  0  0  0
    7.7611    1.5518    0.0000 C   0  0  0  0  0  0  0  0  0  0  0  0
    2.1900   -3.1236    0.0000 C   0  0  0  0  0  0  0  0  0  0  0  0
    2.0000   -1.7222    0.0000 C   0  0  0  0  0  0  0  0  0  0  0  0
    3.5914   -2.9336    0.0000 C   0  0  0  0  0  0  0  0  0  0  0  0
    9.7706   -3.1236    0.0000 C   0  0  0  0  0  0  0  0  0  0  0  0
    9.9606   -1.7222    0.0000 C   0  0  0  0  0  0  0  0  0  0  0  0
    8.3692   -2.9336    0.0000 C   0  0  0  0  0  0  0  0  0  0  0  0
    5.6029   -1.6987    0.0000 H   0  0  0  0  0  0  0  0  0  0  0  0
    6.3577   -1.6987    0.0000 H   0  0  0  0  0  0  0  0  0  0  0  0
    2.3884   -0.4865    0.0000 H   0  0  0  0  0  0  0  0  0  0  0  0
    9.5722   -0.4865    0.0000 H   0  0  0  0  0  0  0  0  0  0  0  0
    4.6790   -2.2302    0.0000 H   0  0  0  0  0  0  0  0  0  0  0  0
    7.2816   -2.2302    0.0000 H   0  0  0  0  0  0  0  0  0  0  0  0
    3.4748    2.3387    0.0000 H   0  0  0  0  0  0  0  0  0  0  0  0
    2.6687    2.6836    0.0000 H   0  0  0  0  0  0  0  0  0  0  0  0
    2.3238    1.8775    0.0000 H   0  0  0  0  0  0  0  0  0  0  0  0
    2.1124    1.3834    0.0000 H   0  0  0  0  0  0  0  0  0  0  0  0
    1.7675    0.5773    0.0000 H   0  0  0  0  0  0  0  0  0  0  0  0
    2.5736    0.2324    0.0000 H   0  0  0  0  0  0  0  0  0  0  0  0
    4.4301    0.9763    0.0000 H   0  0  0  0  0  0  0  0  0  0  0  0
    4.7750    1.7825    0.0000 H   0  0  0  0  0  0  0  0  0  0  0  0
    3.9689    2.1274    0.0000 H   0  0  0  0  0  0  0  0  0  0  0  0
    9.6368    1.8775    0.0000 H   0  0  0  0  0  0  0  0  0  0  0  0
    9.2919    2.6836    0.0000 H   0  0  0  0  0  0  0  0  0  0  0  0
    8.4858    2.3387    0.0000 H   0  0  0  0  0  0  0  0  0  0  0  0
    9.3870    0.2324    0.0000 H   0  0  0  0  0  0  0  0  0  0  0  0
   10.1931    0.5773    0.0000 H   0  0  0  0  0  0  0  0  0  0  0  0
    9.8482    1.3834    0.0000 H   0  0  0  0  0  0  0  0  0  0  0  0
    7.9917    2.1274    0.0000 H   0  0  0  0  0  0  0  0  0  0  0  0
    7.1856    1.7825    0.0000 H   0  0  0  0  0  0  0  0  0  0  0  0
    7.5305    0.9763    0.0000 H   0  0  0  0  0  0  0  0  0  0  0  0
    1.6967   -2.7480    0.0000 H   0  0  0  0  0  0  0  0  0  0  0  0
    1.8145   -3.6169    0.0000 H   0  0  0  0  0  0  0  0  0  0  0  0
    2.6833   -3.4991    0.0000 H   0  0  0  0  0  0  0  0  0  0  0  0
    2.3755   -1.2288    0.0000 H   0  0  0  0  0  0  0  0  0  0  0  0
    1.5067   -1.3466    0.0000 H   0  0  0  0  0  0  0  0  0  0  0  0
    1.6245   -2.2155    0.0000 H   0  0  0  0  0  0  0  0  0  0  0  0
    3.2158   -3.4269    0.0000 H   0  0  0  0  0  0  0  0  0  0  0  0
    4.0847   -3.3091    0.0000 H   0  0  0  0  0  0  0  0  0  0  0  0
    3.9669   -2.4402    0.0000 H   0  0  0  0  0  0  0  0  0  0  0  0
    9.2773   -3.4991    0.0000 H   0  0  0  0  0  0  0  0  0  0  0  0
   10.1461   -3.6169    0.0000 H   0  0  0  0  0  0  0  0  0  0  0  0
   10.2639   -2.7480    0.0000 H   0  0  0  0  0  0  0  0  0  0  0  0
   10.3361   -2.2155    0.0000 H   0  0  0  0  0  0  0  0  0  0  0  0
   10.4539   -1.3466    0.0000 H   0  0  0  0  0  0  0  0  0  0  0  0
    9.5851   -1.2288    0.0000 H   0  0  0  0  0  0  0  0  0  0  0  0
    7.9937   -2.4402    0.0000 H   0  0  0  0  0  0  0  0  0  0  0  0
    7.8759   -3.3091    0.0000 H   0  0  0  0  0  0  0  0  0  0  0  0
    8.7447   -3.4269    0.0000 H   0  0  0  0  0  0  0  0  0  0  0  0
  1  3  1  0  0  0  0
  1  4  1  0  0  0  0
  1  5  1  0  0  0  0
  1  6  2  0  0  0  0
  3 18  1  0  0  0  0
  4 19  1  0  0  0  0
  7  9  1  0  0  0  0
  7 24  1  0  0  0  0
  7 25  1  0  0  0  0
  7 26  1  0  0  0  0
  8 10  1  0  0  0  0
  8 27  1  0  0  0  0
  8 28  1  0  0  0  0
  8 29  1  0  0  0  0
  9 18  1  0  0  0  0
  9 20  2  0  0  0  0
 10 19  1  0  0  0  0
 10 21  2  0  0  0  0
 11 16  1  0  0  0  0
 11 30  1  0  0  0  0
 11 31  1  0  0  0  0
 11 32  1  0  0  0  0
 12 17  1  0  0  0  0
 12 33  1  0  0  0  0
 12 34  1  0  0  0  0
 12 35  1  0  0  0  0
 13 15  1  0  0  0  0
 13 18  2  0  0  0  0
 13 22  1  0  0  0  0
 14 15  1  0  0  0  0
 14 19  2  0  0  0  0
 14 23  1  0  0  0  0
 15 36  1  0  0  0  0
 15 37  1  0  0  0  0
 16 20  1  0  0  0  0
 16 22  2  0  0  0  0
 17 21  1  0  0  0  0
 17 23  2  0  0  0  0
 20 38  1  0  0  0  0
 21 39  1  0  0  0  0
 22 40  1  0  0  0  0
 23 41  1  0  0  0  0
 24 42  1  0  0  0  0
 24 43  1  0  0  0  0
 24 44  1  0  0  0  0
 25 45  1  0  0  0  0
 25 46  1  0  0  0  0
 25 47  1  0  0  0  0
 26 48  1  0  0  0  0
 26 49  1  0  0  0  0
 26 50  1  0  0  0  0
 27 51  1  0  0  0  0
 27 52  1  0  0  0  0
 27 53  1  0  0  0  0
 28 54  1  0  0  0  0
 28 55  1  0  0  0  0
 28 56  1  0  0  0  0
 29 57  1  0  0  0  0
 29 58  1  0  0  0  0
 29 59  1  0  0  0  0
 30 60  1  0  0  0  0
 30 61  1  0  0  0  0
 30 62  1  0  0  0  0
 31 63  1  0  0  0  0
 31 64  1  0  0  0  0
 31 65  1  0  0  0  0
 32 66  1  0  0  0  0
 32 67  1  0  0  0  0
 32 68  1  0  0  0  0
 33 69  1  0  0  0  0
 33 70  1  0  0  0  0
 33 71  1  0  0  0  0
 34 72  1  0  0  0  0
 34 73  1  0  0  0  0
 34 74  1  0  0  0  0
 35 75  1  0  0  0  0
 35 76  1  0  0  0  0
 35 77  1  0  0  0  0
M  CHG  2   2   1   5  -1
M  END
> <PUBCHEM_COMPOUND_CID>
23674278

> <PUBCHEM_COMPOUND_CANONICALIZED>
1

> <PUBCHEM_CACTVS_COMPLEXITY>
710

> <PUBCHEM_CACTVS_HBOND_ACCEPTOR>
4

> <PUBCHEM_CACTVS_HBOND_DONOR>
0

> <PUBCHEM_CACTVS_ROTATABLE_BOND>
4

> <PUBCHEM_CACTVS_SUBSKEYS>
AAADcfB4OCIAAAAAAAAAAAAAAAAAAAAAAAAwYAAAAAASAAABQAAAGgAAACAADgSAmAAyBoAAARCAQiBCAIACAAAgIAAAiAAECIgIJiKAERKAMAAkwBEIiAeA4PQPoAACAAAIAABAAAQAABAAAAAAAAAAAA==

> <PUBCHEM_IUPAC_OPENEYE_NAME>
sodium;1,3,7,9-tetratert-butyl-11-oxido-5H-benzo[d][1,3,2]benzodioxaphosphocine 11-oxide

> <PUBCHEM_IUPAC_CAS_NAME>
sodium;1,3,7,9-tetratert-butyl-11-oxido-5H-benzo[d][1,3,2]benzodioxaphosphocin 11-oxide

> <PUBCHEM_IUPAC_NAME_MARKUP>
sodium;1,3,7,9-tetra<I>tert</I>-butyl-11-oxido-5<I>H</I>-benzo[d][1,3,2]benzodioxaphosphocine 11-oxide

> <PUBCHEM_IUPAC_NAME>
sodium;1,3,7,9-tetratert-butyl-11-oxido-5H-benzo[d][1,3,2]benzodioxaphosphocine 11-oxide

> <PUBCHEM_IUPAC_SYSTEMATIC_NAME>
sodium;1,3,7,9-tetratert-butyl-11-oxidanidyl-5H-benzo[d][1,3,2]benzodioxaphosphocine 11-oxide

> <PUBCHEM_IUPAC_TRADITIONAL_NAME>
sodium;1,3,7,9-tetratert-butyl-11-oxido-5H-benzo[d][1,3,2]benzodioxaphosphocin 11-oxide

> <PUBCHEM_IUPAC_INCHI>
InChI=1S/C29H43O4P.Na/c1-26(2,3)20-14-18-13-19-15-21(27(4,5)6)17-23(29(10,11)12)25(19)33-34(30,31)32-24(18)22(16-20)28(7,8)9;/h14-17H,13H2,1-12H3,(H,30,31);/q;+1/p-1

> <PUBCHEM_IUPAC_INCHIKEY>
ZHROMWXOTYBIMF-UHFFFAOYSA-M

> <PUBCHEM_EXACT_MASS>
508.27184110

> <PUBCHEM_MOLECULAR_FORMULA>
C29H42NaO4P

> <PUBCHEM_MOLECULAR_WEIGHT>
508.6

> <PUBCHEM_SMILES>
CC(C)(C)C1=CC2=C(C(=C1)C(C)(C)C)OP(=O)(OC3=C(C2)C=C(C=C3C(C)(C)C)C(C)(C)C)[O-].[Na+]

> <PUBCHEM_OPENEYE_CAN_SMILES>
CC(C)(C)C1=CC2=C(C(=C1)C(C)(C)C)OP(=O)(OC3=C(C2)C=C(C=C3C(C)(C)C)C(C)(C)C)[O-].[Na+]

> <PUBCHEM_OPENEYE_ISO_SMILES>
CC(C)(C)C1=CC2=C(C(=C1)C(C)(C)C)OP(=O)(OC3=C(C2)C=C(C=C3C(C)(C)C)C(C)(C)C)[O-].[Na+]

> <PUBCHEM_CACTVS_TPSA>
58.6

> <PUBCHEM_MONOISOTOPIC_WEIGHT>
508.27184110

> <PUBCHEM_TOTAL_CHARGE>
0

> <PUBCHEM_HEAVY_ATOM_COUNT>
35

> <PUBCHEM_ATOM_DEF_STEREO_COUNT>
0

> <PUBCHEM_ATOM_UDEF_STEREO_COUNT>
0

> <PUBCHEM_BOND_DEF_STEREO_COUNT>
0

> <PUBCHEM_BOND_UDEF_STEREO_COUNT>
0

> <PUBCHEM_ISOTOPIC_ATOM_COUNT>
0

> <PUBCHEM_COMPONENT_COUNT>
2

> <PUBCHEM_CACTVS_TAUTO_COUNT>
-1

> <PUBCHEM_NONSTANDARDBOND>
2  5  7

> <PUBCHEM_COORDINATE_TYPE>
1
5
255

> <PUBCHEM_BONDANNOTATIONS>
10  19  8
10  21  8
13  18  8
13  22  8
14  19  8
14  23  8
16  20  8
16  22  8
17  21  8
17  23  8
9  18  8
9  20  8

$$$$
