24567
  -OEChem-04042512402D

 40 27  0     0  0  0  0  0  0999 V2000
    1.7320    3.0000    0.0000 Al  0  1  0  0  0  0  0  0  0  0  0  0
    1.7320    2.0000    0.0000 O   0  5  0  0  0  0  0  0  0  0  0  0
    0.8660    0.5000    0.0000 O   0  5  0  0  0  0  0  0  0  0  0  0
    4.3301    3.5000    0.0000 O   0  5  0  0  0  0  0  0  0  0  0  0
    2.5981    3.5000    0.0000 O   0  5  0  0  0  0  0  0  0  0  0  0
    0.8660    3.5000    0.0000 O   0  5  0  0  0  0  0  0  0  0  0  0
    0.0000    5.0000    0.0000 O   0  5  0  0  0  0  0  0  0  0  0  0
    0.0000    2.0000    0.0000 O   0  0  0  0  0  0  0  0  0  0  0  0
    3.4641    2.0000    0.0000 O   0  0  0  0  0  0  0  0  0  0  0  0
    1.7320    5.0000    0.0000 O   0  0  0  0  0  0  0  0  0  0  0  0
    6.8671   10.0000    0.0000 O   0  0  0  0  0  0  0  0  0  0  0  0
    2.1651    7.0000    0.0000 O   0  0  0  0  0  0  0  0  0  0  0  0
    2.1651    9.5000    0.0000 O   0  0  0  0  0  0  0  0  0  0  0  0
    6.8671    0.0000    0.0000 O   0  0  0  0  0  0  0  0  0  0  0  0
    6.8671    2.5000    0.0000 O   0  0  0  0  0  0  0  0  0  0  0  0
    6.8671    5.0000    0.0000 O   0  0  0  0  0  0  0  0  0  0  0  0
    6.8671    7.5000    0.0000 O   0  0  0  0  0  0  0  0  0  0  0  0
    9.9409    3.7500    0.0000 O   0  0  0  0  0  0  0  0  0  0  0  0
    9.9409    6.2500    0.0000 O   0  0  0  0  0  0  0  0  0  0  0  0
    0.8660    1.5000    0.0000 N   0  3  0  0  0  0  0  0  0  0  0  0
    3.4641    3.0000    0.0000 N   0  3  0  0  0  0  0  0  0  0  0  0
    0.8660    4.5000    0.0000 N   0  3  0  0  0  0  0  0  0  0  0  0
    7.4040   10.3100    0.0000 H   0  0  0  0  0  0  0  0  0  0  0  0
    6.3301   10.3100    0.0000 H   0  0  0  0  0  0  0  0  0  0  0  0
    2.7020    7.3100    0.0000 H   0  0  0  0  0  0  0  0  0  0  0  0
    1.6281    7.3100    0.0000 H   0  0  0  0  0  0  0  0  0  0  0  0
    2.7020    9.8100    0.0000 H   0  0  0  0  0  0  0  0  0  0  0  0
    1.6281    9.8100    0.0000 H   0  0  0  0  0  0  0  0  0  0  0  0
    7.4040    0.3100    0.0000 H   0  0  0  0  0  0  0  0  0  0  0  0
    6.3301    0.3100    0.0000 H   0  0  0  0  0  0  0  0  0  0  0  0
    7.4040    2.8100    0.0000 H   0  0  0  0  0  0  0  0  0  0  0  0
    6.3301    2.8100    0.0000 H   0  0  0  0  0  0  0  0  0  0  0  0
    7.4040    5.3100    0.0000 H   0  0  0  0  0  0  0  0  0  0  0  0
    6.3301    5.3100    0.0000 H   0  0  0  0  0  0  0  0  0  0  0  0
    7.4040    7.8100    0.0000 H   0  0  0  0  0  0  0  0  0  0  0  0
    6.3301    7.8100    0.0000 H   0  0  0  0  0  0  0  0  0  0  0  0
   10.4779    4.0600    0.0000 H   0  0  0  0  0  0  0  0  0  0  0  0
    9.4040    4.0600    0.0000 H   0  0  0  0  0  0  0  0  0  0  0  0
   10.4779    6.5600    0.0000 H   0  0  0  0  0  0  0  0  0  0  0  0
    9.4040    6.5600    0.0000 H   0  0  0  0  0  0  0  0  0  0  0  0
  2 20  1  0  0  0  0
  3 20  1  0  0  0  0
  4 21  1  0  0  0  0
  5 21  1  0  0  0  0
  6 22  1  0  0  0  0
  7 22  1  0  0  0  0
  8 20  2  0  0  0  0
  9 21  2  0  0  0  0
 10 22  2  0  0  0  0
 11 23  1  0  0  0  0
 11 24  1  0  0  0  0
 12 25  1  0  0  0  0
 12 26  1  0  0  0  0
 13 27  1  0  0  0  0
 13 28  1  0  0  0  0
 14 29  1  0  0  0  0
 14 30  1  0  0  0  0
 15 31  1  0  0  0  0
 15 32  1  0  0  0  0
 16 33  1  0  0  0  0
 16 34  1  0  0  0  0
 17 35  1  0  0  0  0
 17 36  1  0  0  0  0
 18 37  1  0  0  0  0
 18 38  1  0  0  0  0
 19 39  1  0  0  0  0
 19 40  1  0  0  0  0
M  CHG  8   1   3   2  -1   3  -1   4  -1   5  -1   6  -1   7  -1  20   1
M  CHG  2  21   1  22   1
M  END
> <PUBCHEM_COMPOUND_CID>
24567

> <PUBCHEM_COMPOUND_CANONICALIZED>
1

> <PUBCHEM_CACTVS_COMPLEXITY>
18.8

> <PUBCHEM_CACTVS_HBOND_ACCEPTOR>
18

> <PUBCHEM_CACTVS_HBOND_DONOR>
9

> <PUBCHEM_CACTVS_ROTATABLE_BOND>
0

> <PUBCHEM_CACTVS_SUBSKEYS>
AAADceADPgAAABAAAAAAAAAAAAAAAAAAAAAAAAAAAAAAAAAAAAAAAAAECAAAAAAAAAAAAAAAQAABAAAAAQAAAAAAAAAAAAAAAAAAAAAAAAAAAAAAAAAAAAAAAAAAAAAAAAAAAAAAAAAAAAAAAAAAAAAAAA==

> <PUBCHEM_IUPAC_OPENEYE_NAME>
aluminum;trinitrate;nonahydrate

> <PUBCHEM_IUPAC_CAS_NAME>
aluminum;trinitrate;nonahydrate

> <PUBCHEM_IUPAC_NAME_MARKUP>
aluminum;trinitrate;nonahydrate

> <PUBCHEM_IUPAC_NAME>
aluminum;trinitrate;nonahydrate

> <PUBCHEM_IUPAC_SYSTEMATIC_NAME>
aluminum;trinitrate;nonahydrate

> <PUBCHEM_IUPAC_TRADITIONAL_NAME>
aluminum;trinitrate;nonahydrate

> <PUBCHEM_IUPAC_INCHI>
InChI=1S/Al.3NO3.9H2O/c;3*2-1(3)4;;;;;;;;;/h;;;;9*1H2/q+3;3*-1;;;;;;;;;

> <PUBCHEM_IUPAC_INCHIKEY>
SWCIQHXIXUMHKA-UHFFFAOYSA-N

> <PUBCHEM_EXACT_MASS>
375.0400741

> <PUBCHEM_MOLECULAR_FORMULA>
AlH18N3O18

> <PUBCHEM_MOLECULAR_WEIGHT>
375.13

> <PUBCHEM_SMILES>
[N+](=O)([O-])[O-].[N+](=O)([O-])[O-].[N+](=O)([O-])[O-].O.O.O.O.O.O.O.O.O.[Al+3]

> <PUBCHEM_OPENEYE_CAN_SMILES>
[N+](=O)([O-])[O-].[N+](=O)([O-])[O-].[N+](=O)([O-])[O-].O.O.O.O.O.O.O.O.O.[Al+3]

> <PUBCHEM_OPENEYE_ISO_SMILES>
[N+](=O)([O-])[O-].[N+](=O)([O-])[O-].[N+](=O)([O-])[O-].O.O.O.O.O.O.O.O.O.[Al+3]

> <PUBCHEM_CACTVS_TPSA>
198

> <PUBCHEM_MONOISOTOPIC_WEIGHT>
375.0400741

> <PUBCHEM_TOTAL_CHARGE>
0

> <PUBCHEM_HEAVY_ATOM_COUNT>
22

> <PUBCHEM_ATOM_DEF_STEREO_COUNT>
0

> <PUBCHEM_ATOM_UDEF_STEREO_COUNT>
0

> <PUBCHEM_BOND_DEF_STEREO_COUNT>
0

> <PUBCHEM_BOND_UDEF_STEREO_COUNT>
0

> <PUBCHEM_ISOTOPIC_ATOM_COUNT>
0

> <PUBCHEM_COMPONENT_COUNT>
13

> <PUBCHEM_CACTVS_TAUTO_COUNT>
-1

> <PUBCHEM_COORDINATE_TYPE>
1
5
255

$$$$
