24712
  -OEChem-04042505532D

 58 59  0     1  0  0  0  0  0999 V2000
    4.5981    3.8100    0.0000 S   0  0  0  0  0  0  0  0  0  0  0  0
    6.3301   -4.1900    0.0000 S   0  0  0  0  0  0  0  0  0  0  0  0
    4.5981    1.8100    0.0000 O   0  0  0  0  0  0  0  0  0  0  0  0
    5.0981    4.6760    0.0000 O   0  0  0  0  0  0  0  0  0  0  0  0
    2.8660    0.8100    0.0000 O   0  0  0  0  0  0  0  0  0  0  0  0
    3.7320    4.3100    0.0000 O   0  0  0  0  0  0  0  0  0  0  0  0
    4.0981    2.9440    0.0000 O   0  0  0  0  0  0  0  0  0  0  0  0
    6.3301    3.8100    0.0000 O   0  0  0  0  0  0  0  0  0  0  0  0
    8.0622    4.8100    0.0000 O   0  0  0  0  0  0  0  0  0  0  0  0
    7.1962   -4.6900    0.0000 O   0  0  0  0  0  0  0  0  0  0  0  0
    5.8301   -5.0560    0.0000 O   0  0  0  0  0  0  0  0  0  0  0  0
    6.8301   -3.3240    0.0000 O   0  0  0  0  0  0  0  0  0  0  0  0
    5.4641    2.3100    0.0000 C   0  0  3  0  0  0  0  0  0  0  0  0
    6.3301    1.8100    0.0000 C   0  0  0  0  0  0  0  0  0  0  0  0
    5.4641    3.3100    0.0000 C   0  0  0  0  0  0  0  0  0  0  0  0
    7.1962    2.3100    0.0000 C   0  0  0  0  0  0  0  0  0  0  0  0
    4.5981   -2.1900    0.0000 C   0  0  0  0  0  0  0  0  0  0  0  0
    5.4641   -2.6900    0.0000 C   0  0  0  0  0  0  0  0  0  0  0  0
    4.5981   -1.1900    0.0000 C   0  0  0  0  0  0  0  0  0  0  0  0
    4.5981    0.8100    0.0000 C   0  0  0  0  0  0  0  0  0  0  0  0
    3.7320    0.3100    0.0000 C   0  0  0  0  0  0  0  0  0  0  0  0
    5.4641   -3.6900    0.0000 C   0  0  0  0  0  0  0  0  0  0  0  0
    3.7320   -0.6900    0.0000 C   0  0  0  0  0  0  0  0  0  0  0  0
    5.4641   -0.6900    0.0000 C   0  0  0  0  0  0  0  0  0  0  0  0
    5.4641    0.3100    0.0000 C   0  0  0  0  0  0  0  0  0  0  0  0
    7.1962    3.3100    0.0000 C   0  0  0  0  0  0  0  0  0  0  0  0
    8.0622    1.8100    0.0000 C   0  0  0  0  0  0  0  0  0  0  0  0
    8.0622    3.8100    0.0000 C   0  0  0  0  0  0  0  0  0  0  0  0
    8.9282    2.3100    0.0000 C   0  0  0  0  0  0  0  0  0  0  0  0
    8.9282    3.3100    0.0000 C   0  0  0  0  0  0  0  0  0  0  0  0
    2.0000    0.3100    0.0000 C   0  0  0  0  0  0  0  0  0  0  0  0
    8.9282    5.3100    0.0000 C   0  0  0  0  0  0  0  0  0  0  0  0
    5.4641    1.6900    0.0000 H   0  0  0  0  0  0  0  0  0  0  0  0
    5.9316    1.3350    0.0000 H   0  0  0  0  0  0  0  0  0  0  0  0
    6.7287    1.3350    0.0000 H   0  0  0  0  0  0  0  0  0  0  0  0
    6.0747    3.2023    0.0000 H   0  0  0  0  0  0  0  0  0  0  0  0
    5.6762    3.8926    0.0000 H   0  0  0  0  0  0  0  0  0  0  0  0
    3.9875   -2.0823    0.0000 H   0  0  0  0  0  0  0  0  0  0  0  0
    4.3860   -2.7726    0.0000 H   0  0  0  0  0  0  0  0  0  0  0  0
    6.0747   -2.7977    0.0000 H   0  0  0  0  0  0  0  0  0  0  0  0
    5.6762   -2.1074    0.0000 H   0  0  0  0  0  0  0  0  0  0  0  0
    4.8535   -3.5823    0.0000 H   0  0  0  0  0  0  0  0  0  0  0  0
    5.2520   -4.2726    0.0000 H   0  0  0  0  0  0  0  0  0  0  0  0
    3.1951   -1.0000    0.0000 H   0  0  0  0  0  0  0  0  0  0  0  0
    6.0010   -1.0000    0.0000 H   0  0  0  0  0  0  0  0  0  0  0  0
    6.0010    0.6200    0.0000 H   0  0  0  0  0  0  0  0  0  0  0  0
    8.0622    1.1900    0.0000 H   0  0  0  0  0  0  0  0  0  0  0  0
    9.4651    2.0000    0.0000 H   0  0  0  0  0  0  0  0  0  0  0  0
    9.4651    3.6200    0.0000 H   0  0  0  0  0  0  0  0  0  0  0  0
    4.7881    5.2130    0.0000 H   0  0  0  0  0  0  0  0  0  0  0  0
    6.3301    4.4300    0.0000 H   0  0  0  0  0  0  0  0  0  0  0  0
    1.6900    0.8469    0.0000 H   0  0  0  0  0  0  0  0  0  0  0  0
    1.4631    0.0000    0.0000 H   0  0  0  0  0  0  0  0  0  0  0  0
    2.3100   -0.2269    0.0000 H   0  0  0  0  0  0  0  0  0  0  0  0
    7.1962   -5.3100    0.0000 H   0  0  0  0  0  0  0  0  0  0  0  0
    9.2382    4.7731    0.0000 H   0  0  0  0  0  0  0  0  0  0  0  0
    9.4651    5.6200    0.0000 H   0  0  0  0  0  0  0  0  0  0  0  0
    8.6182    5.8469    0.0000 H   0  0  0  0  0  0  0  0  0  0  0  0
  1  4  1  0  0  0  0
  1  6  2  0  0  0  0
  1  7  2  0  0  0  0
  1 15  1  0  0  0  0
  2 10  1  0  0  0  0
  2 11  2  0  0  0  0
  2 12  2  0  0  0  0
  2 22  1  0  0  0  0
  3 13  1  0  0  0  0
  3 20  1  0  0  0  0
  4 50  1  0  0  0  0
  5 21  1  0  0  0  0
  5 31  1  0  0  0  0
  8 26  1  0  0  0  0
  8 51  1  0  0  0  0
  9 28  1  0  0  0  0
  9 32  1  0  0  0  0
 10 55  1  0  0  0  0
 13 14  1  0  0  0  0
 13 15  1  0  0  0  0
 13 33  1  0  0  0  0
 14 16  1  0  0  0  0
 14 34  1  0  0  0  0
 14 35  1  0  0  0  0
 15 36  1  0  0  0  0
 15 37  1  0  0  0  0
 16 26  2  0  0  0  0
 16 27  1  0  0  0  0
 17 18  1  0  0  0  0
 17 19  1  0  0  0  0
 17 38  1  0  0  0  0
 17 39  1  0  0  0  0
 18 22  1  0  0  0  0
 18 40  1  0  0  0  0
 18 41  1  0  0  0  0
 19 23  2  0  0  0  0
 19 24  1  0  0  0  0
 20 21  2  0  0  0  0
 20 25  1  0  0  0  0
 21 23  1  0  0  0  0
 22 42  1  0  0  0  0
 22 43  1  0  0  0  0
 23 44  1  0  0  0  0
 24 25  2  0  0  0  0
 24 45  1  0  0  0  0
 25 46  1  0  0  0  0
 26 28  1  0  0  0  0
 27 29  2  0  0  0  0
 27 47  1  0  0  0  0
 28 30  2  0  0  0  0
 29 30  1  0  0  0  0
 29 48  1  0  0  0  0
 30 49  1  0  0  0  0
 31 52  1  0  0  0  0
 31 53  1  0  0  0  0
 31 54  1  0  0  0  0
 32 56  1  0  0  0  0
 32 57  1  0  0  0  0
 32 58  1  0  0  0  0
M  END
> <PUBCHEM_COMPOUND_CID>
24712

> <PUBCHEM_COMPOUND_CANONICALIZED>
1

> <PUBCHEM_CACTVS_COMPLEXITY>
758

> <PUBCHEM_CACTVS_HBOND_ACCEPTOR>
10

> <PUBCHEM_CACTVS_HBOND_DONOR>
3

> <PUBCHEM_CACTVS_ROTATABLE_BOND>
12

> <PUBCHEM_CACTVS_SUBSKEYS>
AAADceB4PABgAAAAAAAAAAAAAAAAAAAAAAAwYAAAAAAAAAABQAAAGgQACAAADBSk2AKyBoAABoKAAiBCAHBCCAAgIAAIiAAGiIgNJiKGMRqCeCOkwBELuAfA4LwOIAABAAAIQABAAAIAABCAAAAAAAAAAA==

> <PUBCHEM_IUPAC_OPENEYE_NAME>
3-(2-hydroxy-3-methoxy-phenyl)-2-[2-methoxy-4-(3-sulfopropyl)phenoxy]propane-1-sulfonic acid

> <PUBCHEM_IUPAC_CAS_NAME>
3-(2-hydroxy-3-methoxyphenyl)-2-[2-methoxy-4-(3-sulfopropyl)phenoxy]-1-propanesulfonic acid

> <PUBCHEM_IUPAC_NAME_MARKUP>
3-(2-hydroxy-3-methoxyphenyl)-2-[2-methoxy-4-(3-sulfopropyl)phenoxy]propane-1-sulfonic acid

> <PUBCHEM_IUPAC_NAME>
3-(2-hydroxy-3-methoxyphenyl)-2-[2-methoxy-4-(3-sulfopropyl)phenoxy]propane-1-sulfonic acid

> <PUBCHEM_IUPAC_SYSTEMATIC_NAME>
3-(3-methoxy-2-oxidanyl-phenyl)-2-[2-methoxy-4-(3-sulfopropyl)phenoxy]propane-1-sulfonic acid

> <PUBCHEM_IUPAC_TRADITIONAL_NAME>
3-(2-hydroxy-3-methoxy-phenyl)-2-[2-methoxy-4-(3-sulfopropyl)phenoxy]propane-1-sulfonic acid

> <PUBCHEM_IUPAC_INCHI>
InChI=1S/C20H26O10S2/c1-28-18-7-3-6-15(20(18)21)12-16(13-32(25,26)27)30-17-9-8-14(11-19(17)29-2)5-4-10-31(22,23)24/h3,6-9,11,16,21H,4-5,10,12-13H2,1-2H3,(H,22,23,24)(H,25,26,27)

> <PUBCHEM_IUPAC_INCHIKEY>
FOGYNLXERPKEGN-UHFFFAOYSA-N

> <PUBCHEM_XLOGP3_AA>
1.9

> <PUBCHEM_EXACT_MASS>
490.09673937

> <PUBCHEM_MOLECULAR_FORMULA>
C20H26O10S2

> <PUBCHEM_MOLECULAR_WEIGHT>
490.5

> <PUBCHEM_SMILES>
COC1=CC=CC(=C1O)CC(CS(=O)(=O)O)OC2=C(C=C(C=C2)CCCS(=O)(=O)O)OC

> <PUBCHEM_OPENEYE_CAN_SMILES>
COC1=CC=CC(=C1O)CC(CS(=O)(=O)O)OC2=C(C=C(C=C2)CCCS(=O)(=O)O)OC

> <PUBCHEM_OPENEYE_ISO_SMILES>
COC1=CC=CC(=C1O)CC(CS(=O)(=O)O)OC2=C(C=C(C=C2)CCCS(=O)(=O)O)OC

> <PUBCHEM_CACTVS_TPSA>
173

> <PUBCHEM_MONOISOTOPIC_WEIGHT>
490.09673937

> <PUBCHEM_TOTAL_CHARGE>
0

> <PUBCHEM_HEAVY_ATOM_COUNT>
32

> <PUBCHEM_ATOM_DEF_STEREO_COUNT>
0

> <PUBCHEM_ATOM_UDEF_STEREO_COUNT>
1

> <PUBCHEM_BOND_DEF_STEREO_COUNT>
0

> <PUBCHEM_BOND_UDEF_STEREO_COUNT>
0

> <PUBCHEM_ISOTOPIC_ATOM_COUNT>
0

> <PUBCHEM_COMPONENT_COUNT>
1

> <PUBCHEM_CACTVS_TAUTO_COUNT>
-1

> <PUBCHEM_COORDINATE_TYPE>
1
5
255

> <PUBCHEM_BONDANNOTATIONS>
13  14  3
16  26  8
16  27  8
19  23  8
19  24  8
20  21  8
20  25  8
21  23  8
24  25  8
26  28  8
27  29  8
28  30  8
29  30  8

$$$$
