24748
  -OEChem-04042505482D

 32 30  0     1  0  0  0  0  0999 V2000
    3.1350    0.3100    0.0000 O   0  0  0  0  0  0  0  0  0  0  0  0
    4.0010    2.8100    0.0000 O   0  0  0  0  0  0  0  0  0  0  0  0
    2.2690    2.8100    0.0000 O   0  0  0  0  0  0  0  0  0  0  0  0
    4.8671    0.3100    0.0000 O   0  0  0  0  0  0  0  0  0  0  0  0
    0.5369    1.8100    0.0000 O   0  0  0  0  0  0  0  0  0  0  0  0
    6.5991    1.3100    0.0000 O   0  0  0  0  0  0  0  0  0  0  0  0
    4.1656    6.6200    0.0000 O   0  0  0  0  0  0  0  0  0  0  0  0
    3.2996    5.1200    0.0000 O   0  0  0  0  0  0  0  0  0  0  0  0
    3.1350    1.3100    0.0000 C   0  0  3  0  0  0  0  0  0  0  0  0
    4.0010    1.8100    0.0000 C   0  0  3  0  0  0  0  0  0  0  0  0
    2.2690    1.8100    0.0000 C   0  0  3  0  0  0  0  0  0  0  0  0
    4.8671    1.3100    0.0000 C   0  0  3  0  0  0  0  0  0  0  0  0
    1.4030    1.3100    0.0000 C   0  0  0  0  0  0  0  0  0  0  0  0
    5.7331    1.8100    0.0000 C   0  0  0  0  0  0  0  0  0  0  0  0
    2.4335    6.6200    0.0000 C   0  0  0  0  0  0  0  0  0  0  0  0
    3.2996    6.1200    0.0000 C   0  0  0  0  0  0  0  0  0  0  0  0
    3.8711    0.8850    0.0000 H   0  0  0  0  0  0  0  0  0  0  0  0
    4.7372    2.2350    0.0000 H   0  0  0  0  0  0  0  0  0  0  0  0
    3.0051    2.2350    0.0000 H   0  0  0  0  0  0  0  0  0  0  0  0
    4.1309    0.8850    0.0000 H   0  0  0  0  0  0  0  0  0  0  0  0
    1.0044    0.8351    0.0000 H   0  0  0  0  0  0  0  0  0  0  0  0
    1.8015    0.8351    0.0000 H   0  0  0  0  0  0  0  0  0  0  0  0
    2.5981    0.0000    0.0000 H   0  0  0  0  0  0  0  0  0  0  0  0
    4.5380    3.1200    0.0000 H   0  0  0  0  0  0  0  0  0  0  0  0
    5.7331    2.4300    0.0000 H   0  0  0  0  0  0  0  0  0  0  0  0
    1.7320    3.1200    0.0000 H   0  0  0  0  0  0  0  0  0  0  0  0
    5.4040    0.0000    0.0000 H   0  0  0  0  0  0  0  0  0  0  0  0
    0.0000    1.5000    0.0000 H   0  0  0  0  0  0  0  0  0  0  0  0
    2.7435    7.1569    0.0000 H   0  0  0  0  0  0  0  0  0  0  0  0
    1.8966    6.9300    0.0000 H   0  0  0  0  0  0  0  0  0  0  0  0
    2.1235    6.0831    0.0000 H   0  0  0  0  0  0  0  0  0  0  0  0
    4.7025    6.3100    0.0000 H   0  0  0  0  0  0  0  0  0  0  0  0
  1  9  1  0  0  0  0
  1 23  1  0  0  0  0
  2 10  1  0  0  0  0
  2 24  1  0  0  0  0
  3 11  1  0  0  0  0
  3 26  1  0  0  0  0
  4 12  1  0  0  0  0
  4 27  1  0  0  0  0
  5 13  1  0  0  0  0
  5 28  1  0  0  0  0
  6 14  2  0  0  0  0
  7 16  1  0  0  0  0
  7 32  1  0  0  0  0
  8 16  2  0  0  0  0
  9 10  1  0  0  0  0
  9 11  1  0  0  0  0
  9 17  1  0  0  0  0
 10 12  1  0  0  0  0
 10 18  1  0  0  0  0
 11 13  1  0  0  0  0
 11 19  1  0  0  0  0
 12 14  1  0  0  0  0
 12 20  1  0  0  0  0
 13 21  1  0  0  0  0
 13 22  1  0  0  0  0
 14 25  1  0  0  0  0
 15 16  1  0  0  0  0
 15 29  1  0  0  0  0
 15 30  1  0  0  0  0
 15 31  1  0  0  0  0
M  END
> <PUBCHEM_COMPOUND_CID>
24748

> <PUBCHEM_COMPOUND_CANONICALIZED>
1

> <PUBCHEM_CACTVS_COMPLEXITY>
169

> <PUBCHEM_CACTVS_HBOND_ACCEPTOR>
8

> <PUBCHEM_CACTVS_HBOND_DONOR>
6

> <PUBCHEM_CACTVS_ROTATABLE_BOND>
5

> <PUBCHEM_CACTVS_SUBSKEYS>
AAADceBwPAAAAAAAAAAAAAAAAAAAAAAAAAAAAAAAAAAAAAAAAAAAGgAACAAACBSggAICCAAAAgAIAAiQiAIAAAAAAAAAAAFAAAABEBYAAAAAQAAFIAABAAHKbARAAAAAAAAAAAAAAAAAAAAAAAAAAAAAAA==

> <PUBCHEM_IUPAC_OPENEYE_NAME>
acetic acid;2,3,4,5,6-pentahydroxyhexanal

> <PUBCHEM_IUPAC_CAS_NAME>
acetic acid;2,3,4,5,6-pentahydroxyhexanal

> <PUBCHEM_IUPAC_NAME_MARKUP>
acetic acid;2,3,4,5,6-pentahydroxyhexanal

> <PUBCHEM_IUPAC_NAME>
acetic acid;2,3,4,5,6-pentahydroxyhexanal

> <PUBCHEM_IUPAC_SYSTEMATIC_NAME>
ethanoic acid;2,3,4,5,6-pentakis(oxidanyl)hexanal

> <PUBCHEM_IUPAC_TRADITIONAL_NAME>
acetic acid;2,3,4,5,6-pentahydroxyhexanal

> <PUBCHEM_IUPAC_INCHI>
InChI=1S/C6H12O6.C2H4O2/c7-1-3(9)5(11)6(12)4(10)2-8;1-2(3)4/h1,3-6,8-12H,2H2;1H3,(H,3,4)

> <PUBCHEM_IUPAC_INCHIKEY>
VJHCJDRQFCCTHL-UHFFFAOYSA-N

> <PUBCHEM_EXACT_MASS>
240.08451746

> <PUBCHEM_MOLECULAR_FORMULA>
C8H16O8

> <PUBCHEM_MOLECULAR_WEIGHT>
240.21

> <PUBCHEM_SMILES>
CC(=O)O.C(C(C(C(C(C=O)O)O)O)O)O

> <PUBCHEM_OPENEYE_CAN_SMILES>
CC(=O)O.C(C(C(C(C(C=O)O)O)O)O)O

> <PUBCHEM_OPENEYE_ISO_SMILES>
CC(=O)O.C(C(C(C(C(C=O)O)O)O)O)O

> <PUBCHEM_CACTVS_TPSA>
156

> <PUBCHEM_MONOISOTOPIC_WEIGHT>
240.08451746

> <PUBCHEM_TOTAL_CHARGE>
0

> <PUBCHEM_HEAVY_ATOM_COUNT>
16

> <PUBCHEM_ATOM_DEF_STEREO_COUNT>
0

> <PUBCHEM_ATOM_UDEF_STEREO_COUNT>
4

> <PUBCHEM_BOND_DEF_STEREO_COUNT>
0

> <PUBCHEM_BOND_UDEF_STEREO_COUNT>
0

> <PUBCHEM_ISOTOPIC_ATOM_COUNT>
0

> <PUBCHEM_COMPONENT_COUNT>
2

> <PUBCHEM_CACTVS_TAUTO_COUNT>
-1

> <PUBCHEM_COORDINATE_TYPE>
1
5
255

> <PUBCHEM_BONDANNOTATIONS>
10  18  3
11  19  3
12  20  3
9  17  3

$$$$
