24847857
  -OEChem-04042505522D

109112  0     1  0  0  0  0  0999 V2000
    7.7331    1.5000    0.0000 O   0  0  0  0  0  0  0  0  0  0  0  0
    6.8671   -1.0000    0.0000 O   0  0  0  0  0  0  0  0  0  0  0  0
    6.8671    3.0000    0.0000 O   0  0  0  0  0  0  0  0  0  0  0  0
    5.1350   -1.0000    0.0000 O   0  0  0  0  0  0  0  0  0  0  0  0
    9.4651    3.5000    0.0000 O   0  0  0  0  0  0  0  0  0  0  0  0
    9.4651    0.5000    0.0000 O   0  0  0  0  0  0  0  0  0  0  0  0
    5.1350   -0.0000    0.0000 O   0  0  0  0  0  0  0  0  0  0  0  0
    6.8671   -3.0000    0.0000 O   0  0  0  0  0  0  0  0  0  0  0  0
    5.1350    2.0000    0.0000 O   0  0  0  0  0  0  0  0  0  0  0  0
    3.4030   -3.0000    0.0000 O   0  0  0  0  0  0  0  0  0  0  0  0
   10.7920    1.6133    0.0000 O   0  0  0  0  0  0  0  0  0  0  0  0
    5.1350   -4.0000    0.0000 O   0  0  0  0  0  0  0  0  0  0  0  0
    6.8671    5.0000    0.0000 O   0  0  0  0  0  0  0  0  0  0  0  0
    8.5991    6.0000    0.0000 O   0  0  0  0  0  0  0  0  0  0  0  0
   13.4044    1.1946    0.0000 O   0  0  0  0  0  0  0  0  0  0  0  0
   10.7507   -1.0321    0.0000 O   0  0  0  0  0  0  0  0  0  0  0  0
   12.7203   -0.6848    0.0000 O   0  0  0  0  0  0  0  0  0  0  0  0
    9.4651    1.5000    0.0000 O   0  0  0  0  0  0  0  0  0  0  0  0
    2.5369   -1.5000    0.0000 O   0  0  0  0  0  0  0  0  0  0  0  0
    7.2331   -5.3660    0.0000 O   0  0  0  0  0  0  0  0  0  0  0  0
   11.4760    3.4927    0.0000 O   0  0  0  0  0  0  0  0  0  0  0  0
    8.5991   -6.0000    0.0000 O   0  0  0  0  0  0  0  0  0  0  0  0
    6.8671    0.0000    0.0000 C   0  0  3  0  0  0  0  0  0  0  0  0
    7.7331    0.5000    0.0000 C   0  0  3  0  0  0  0  0  0  0  0  0
    6.0010    0.5000    0.0000 C   0  0  3  0  0  0  0  0  0  0  0  0
    6.0010    1.5000    0.0000 C   0  0  3  0  0  0  0  0  0  0  0  0
    6.8671    2.0000    0.0000 C   0  0  3  0  0  0  0  0  0  0  0  0
    7.7331    3.5000    0.0000 C   0  0  3  0  0  0  0  0  0  0  0  0
    6.0010   -1.5000    0.0000 C   0  0  3  0  0  0  0  0  0  0  0  0
    6.0010   -2.5000    0.0000 C   0  0  3  0  0  0  0  0  0  0  0  0
    5.1350   -3.0000    0.0000 C   0  0  3  0  0  0  0  0  0  0  0  0
    7.7331    4.5000    0.0000 C   0  0  3  0  0  0  0  0  0  0  0  0
    4.2690   -2.5000    0.0000 C   0  0  3  0  0  0  0  0  0  0  0  0
    8.5991    3.0000    0.0000 C   0  0  3  0  0  0  0  0  0  0  0  0
    8.5991    0.0000    0.0000 C   0  0  0  0  0  0  0  0  0  0  0  0
    4.2690   -1.5000    0.0000 C   0  0  3  0  0  0  0  0  0  0  0  0
    8.5991    5.0000    0.0000 C   0  0  3  0  0  0  0  0  0  0  0  0
    9.4651    4.5000    0.0000 C   0  0  3  0  0  0  0  0  0  0  0  0
   10.4499    0.6736    0.0000 C   0  0  3  0  0  0  0  0  0  0  0  0
   11.0927   -0.0924    0.0000 C   0  0  3  0  0  0  0  0  0  0  0  0
   12.0775    0.0813    0.0000 C   0  0  3  0  0  0  0  0  0  0  0  0
    8.5991    2.0000    0.0000 C   0  0  0  0  0  0  0  0  0  0  0  0
   12.4196    1.0209    0.0000 C   0  0  3  0  0  0  0  0  0  0  0  0
    3.4030   -1.0000    0.0000 C   0  0  0  0  0  0  0  0  0  0  0  0
   11.7768    1.7870    0.0000 C   0  0  3  0  0  0  0  0  0  0  0  0
   10.3312    5.0000    0.0000 C   0  0  0  0  0  0  0  0  0  0  0  0
    6.8671   -4.0000    0.0000 C   0  0  0  0  0  0  0  0  0  0  0  0
    7.7331   -4.5000    0.0000 C   0  0  3  0  0  0  0  0  0  0  0  0
   12.1188    2.7267    0.0000 C   0  0  0  0  0  0  0  0  0  0  0  0
    3.4030   -4.0000    0.0000 C   0  0  0  0  0  0  0  0  0  0  0  0
    8.5991   -5.0000    0.0000 C   0  0  0  0  0  0  0  0  0  0  0  0
    8.2331   -3.6340    0.0000 C   0  0  0  0  0  0  0  0  0  0  0  0
   13.7464    2.1343    0.0000 C   0  0  0  0  0  0  0  0  0  0  0  0
    7.4040   -0.3100    0.0000 H   0  0  0  0  0  0  0  0  0  0  0  0
    8.2700    0.8100    0.0000 H   0  0  0  0  0  0  0  0  0  0  0  0
    6.0010   -0.1200    0.0000 H   0  0  0  0  0  0  0  0  0  0  0  0
    6.5380    1.1900    0.0000 H   0  0  0  0  0  0  0  0  0  0  0  0
    6.3301    2.3100    0.0000 H   0  0  0  0  0  0  0  0  0  0  0  0
    7.1962    3.8100    0.0000 H   0  0  0  0  0  0  0  0  0  0  0  0
    6.0010   -0.8800    0.0000 H   0  0  0  0  0  0  0  0  0  0  0  0
    6.0010   -3.1200    0.0000 H   0  0  0  0  0  0  0  0  0  0  0  0
    4.5981   -3.3100    0.0000 H   0  0  0  0  0  0  0  0  0  0  0  0
    8.2700    4.1900    0.0000 H   0  0  0  0  0  0  0  0  0  0  0  0
    4.2690   -3.1200    0.0000 H   0  0  0  0  0  0  0  0  0  0  0  0
    9.1360    2.6900    0.0000 H   0  0  0  0  0  0  0  0  0  0  0  0
    8.2006   -0.4749    0.0000 H   0  0  0  0  0  0  0  0  0  0  0  0
    8.9976   -0.4749    0.0000 H   0  0  0  0  0  0  0  0  0  0  0  0
    4.2690   -0.8800    0.0000 H   0  0  0  0  0  0  0  0  0  0  0  0
    8.0622    5.3100    0.0000 H   0  0  0  0  0  0  0  0  0  0  0  0
   10.0021    4.1900    0.0000 H   0  0  0  0  0  0  0  0  0  0  0  0
   10.0514    1.1486    0.0000 H   0  0  0  0  0  0  0  0  0  0  0  0
   10.4822   -0.2001    0.0000 H   0  0  0  0  0  0  0  0  0  0  0  0
   11.8655   -0.5014    0.0000 H   0  0  0  0  0  0  0  0  0  0  0  0
    7.9885    2.1077    0.0000 H   0  0  0  0  0  0  0  0  0  0  0  0
    8.3871    1.4174    0.0000 H   0  0  0  0  0  0  0  0  0  0  0  0
   12.6316    1.6036    0.0000 H   0  0  0  0  0  0  0  0  0  0  0  0
    4.5981    0.3100    0.0000 H   0  0  0  0  0  0  0  0  0  0  0  0
   11.3782    2.2619    0.0000 H   0  0  0  0  0  0  0  0  0  0  0  0
    3.8015   -0.5251    0.0000 H   0  0  0  0  0  0  0  0  0  0  0  0
    3.0044   -0.5251    0.0000 H   0  0  0  0  0  0  0  0  0  0  0  0
    4.5981    1.6900    0.0000 H   0  0  0  0  0  0  0  0  0  0  0  0
   10.6412    4.4631    0.0000 H   0  0  0  0  0  0  0  0  0  0  0  0
   10.8681    5.3100    0.0000 H   0  0  0  0  0  0  0  0  0  0  0  0
   10.0212    5.5369    0.0000 H   0  0  0  0  0  0  0  0  0  0  0  0
    6.2565   -3.8923    0.0000 H   0  0  0  0  0  0  0  0  0  0  0  0
    6.6550   -4.5826    0.0000 H   0  0  0  0  0  0  0  0  0  0  0  0
    4.5981   -4.3100    0.0000 H   0  0  0  0  0  0  0  0  0  0  0  0
    6.8671    5.6200    0.0000 H   0  0  0  0  0  0  0  0  0  0  0  0
    9.1360    6.3100    0.0000 H   0  0  0  0  0  0  0  0  0  0  0  0
   12.6557    2.4167    0.0000 H   0  0  0  0  0  0  0  0  0  0  0  0
   12.5173    3.2016    0.0000 H   0  0  0  0  0  0  0  0  0  0  0  0
   10.1401   -1.1398    0.0000 H   0  0  0  0  0  0  0  0  0  0  0  0
    2.7830   -4.0000    0.0000 H   0  0  0  0  0  0  0  0  0  0  0  0
    3.4030   -4.6200    0.0000 H   0  0  0  0  0  0  0  0  0  0  0  0
    4.0230   -4.0000    0.0000 H   0  0  0  0  0  0  0  0  0  0  0  0
   13.3309   -0.5771    0.0000 H   0  0  0  0  0  0  0  0  0  0  0  0
   10.0021    1.8100    0.0000 H   0  0  0  0  0  0  0  0  0  0  0  0
    2.0000   -1.1900    0.0000 H   0  0  0  0  0  0  0  0  0  0  0  0
    9.2097   -5.1077    0.0000 H   0  0  0  0  0  0  0  0  0  0  0  0
    8.8112   -4.4174    0.0000 H   0  0  0  0  0  0  0  0  0  0  0  0
    8.7700   -3.9440    0.0000 H   0  0  0  0  0  0  0  0  0  0  0  0
    8.5431   -3.0970    0.0000 H   0  0  0  0  0  0  0  0  0  0  0  0
    7.6962   -3.3240    0.0000 H   0  0  0  0  0  0  0  0  0  0  0  0
   14.3290    1.9222    0.0000 H   0  0  0  0  0  0  0  0  0  0  0  0
   13.9584    2.7169    0.0000 H   0  0  0  0  0  0  0  0  0  0  0  0
   13.1638    2.3463    0.0000 H   0  0  0  0  0  0  0  0  0  0  0  0
    6.6131   -5.3660    0.0000 H   0  0  0  0  0  0  0  0  0  0  0  0
   11.6881    4.0753    0.0000 H   0  0  0  0  0  0  0  0  0  0  0  0
    9.1360   -6.3100    0.0000 H   0  0  0  0  0  0  0  0  0  0  0  0
  1 24  1  0  0  0  0
  1 27  1  0  0  0  0
  2 23  1  0  0  0  0
  2 29  1  0  0  0  0
  3 27  1  0  0  0  0
  3 28  1  0  0  0  0
  4 29  1  0  0  0  0
  4 36  1  0  0  0  0
  5 34  1  0  0  0  0
  5 38  1  0  0  0  0
  6 35  1  0  0  0  0
  6 39  1  0  0  0  0
  7 25  1  0  0  0  0
  7 77  1  0  0  0  0
  8 30  1  0  0  0  0
  8 47  1  0  0  0  0
  9 26  1  0  0  0  0
  9 81  1  0  0  0  0
 10 33  1  0  0  0  0
 10 50  1  0  0  0  0
 11 39  1  0  0  0  0
 11 45  1  0  0  0  0
 12 31  1  0  0  0  0
 12 87  1  0  0  0  0
 13 32  1  0  0  0  0
 13 88  1  0  0  0  0
 14 37  1  0  0  0  0
 14 89  1  0  0  0  0
 15 43  1  0  0  0  0
 15 53  1  0  0  0  0
 16 40  1  0  0  0  0
 16 92  1  0  0  0  0
 17 41  1  0  0  0  0
 17 96  1  0  0  0  0
 18 42  1  0  0  0  0
 18 97  1  0  0  0  0
 19 44  1  0  0  0  0
 19 98  1  0  0  0  0
 20 48  1  0  0  0  0
 20107  1  0  0  0  0
 21 49  1  0  0  0  0
 21108  1  0  0  0  0
 22 51  1  0  0  0  0
 22109  1  0  0  0  0
 23 24  1  0  0  0  0
 23 25  1  0  0  0  0
 23 54  1  0  0  0  0
 24 35  1  0  0  0  0
 24 55  1  0  0  0  0
 25 26  1  0  0  0  0
 25 56  1  0  0  0  0
 26 27  1  0  0  0  0
 26 57  1  0  0  0  0
 27 58  1  0  0  0  0
 28 32  1  0  0  0  0
 28 34  1  0  0  0  0
 28 59  1  0  0  0  0
 29 30  1  0  0  0  0
 29 60  1  0  0  0  0
 30 31  1  0  0  0  0
 30 61  1  0  0  0  0
 31 33  1  0  0  0  0
 31 62  1  0  0  0  0
 32 37  1  0  0  0  0
 32 63  1  0  0  0  0
 33 36  1  0  0  0  0
 33 64  1  0  0  0  0
 34 42  1  0  0  0  0
 34 65  1  0  0  0  0
 35 66  1  0  0  0  0
 35 67  1  0  0  0  0
 36 44  1  0  0  0  0
 36 68  1  0  0  0  0
 37 38  1  0  0  0  0
 37 69  1  0  0  0  0
 38 46  1  0  0  0  0
 38 70  1  0  0  0  0
 39 40  1  0  0  0  0
 39 71  1  0  0  0  0
 40 41  1  0  0  0  0
 40 72  1  0  0  0  0
 41 43  1  0  0  0  0
 41 73  1  0  0  0  0
 42 74  1  0  0  0  0
 42 75  1  0  0  0  0
 43 45  1  0  0  0  0
 43 76  1  0  0  0  0
 44 79  1  0  0  0  0
 44 80  1  0  0  0  0
 45 49  1  0  0  0  0
 45 78  1  0  0  0  0
 46 82  1  0  0  0  0
 46 83  1  0  0  0  0
 46 84  1  0  0  0  0
 47 48  1  0  0  0  0
 47 85  1  0  0  0  0
 47 86  1  0  0  0  0
 48 51  1  0  0  0  0
 48 52  1  0  0  0  0
 49 90  1  0  0  0  0
 49 91  1  0  0  0  0
 50 93  1  0  0  0  0
 50 94  1  0  0  0  0
 50 95  1  0  0  0  0
 51 99  1  0  0  0  0
 51100  1  0  0  0  0
 52101  1  0  0  0  0
 52102  1  0  0  0  0
 52103  1  0  0  0  0
 53104  1  0  0  0  0
 53105  1  0  0  0  0
 53106  1  0  0  0  0
M  END
> <PUBCHEM_COMPOUND_CID>
24847857

> <PUBCHEM_COMPOUND_CANONICALIZED>
1

> <PUBCHEM_CACTVS_COMPLEXITY>
1090

> <PUBCHEM_CACTVS_HBOND_ACCEPTOR>
22

> <PUBCHEM_CACTVS_HBOND_DONOR>
12

> <PUBCHEM_CACTVS_ROTATABLE_BOND>
16

> <PUBCHEM_CACTVS_SUBSKEYS>
AAADcfB4PgAAAAAAAAAAAAAAAAAAAAAAAAAkSJEgAAAAAAAAAAAAGgAACAAADFSwgAMCCAAABgAAAAAAAAAAAAAAAAAAAAAAAAAREAIAAAAiQAAFAAAHAAHA4CwAAAAAAAAAAAAAAAAAAAAAAAAAAAAAAA==

> <PUBCHEM_IUPAC_OPENEYE_NAME>
5-[6-[[3,4-dihydroxy-6-(hydroxymethyl)-5-methoxy-tetrahydropyran-2-yl]oxymethyl]-5-[3-(2,3-dihydroxy-2-methyl-propoxy)-4-hydroxy-6-(hydroxymethyl)-5-methoxy-tetrahydropyran-2-yl]oxy-3,4-dihydroxy-tetrahydropyran-2-yl]oxy-6-(hydroxymethyl)-2-methyl-tetrahydropyran-3,4-diol

> <PUBCHEM_IUPAC_CAS_NAME>
5-[[6-[[3,4-dihydroxy-6-(hydroxymethyl)-5-methoxy-2-oxanyl]oxymethyl]-5-[[3-(2,3-dihydroxy-2-methylpropoxy)-4-hydroxy-6-(hydroxymethyl)-5-methoxy-2-oxanyl]oxy]-3,4-dihydroxy-2-oxanyl]oxy]-6-(hydroxymethyl)-2-methyloxane-3,4-diol

> <PUBCHEM_IUPAC_NAME_MARKUP>
5-[6-[[3,4-dihydroxy-6-(hydroxymethyl)-5-methoxyoxan-2-yl]oxymethyl]-5-[3-(2,3-dihydroxy-2-methylpropoxy)-4-hydroxy-6-(hydroxymethyl)-5-methoxyoxan-2-yl]oxy-3,4-dihydroxyoxan-2-yl]oxy-6-(hydroxymethyl)-2-methyloxane-3,4-diol

> <PUBCHEM_IUPAC_NAME>
5-[6-[[3,4-dihydroxy-6-(hydroxymethyl)-5-methoxyoxan-2-yl]oxymethyl]-5-[3-(2,3-dihydroxy-2-methylpropoxy)-4-hydroxy-6-(hydroxymethyl)-5-methoxyoxan-2-yl]oxy-3,4-dihydroxyoxan-2-yl]oxy-6-(hydroxymethyl)-2-methyloxane-3,4-diol

> <PUBCHEM_IUPAC_SYSTEMATIC_NAME>
6-(hydroxymethyl)-5-[6-[[6-(hydroxymethyl)-5-methoxy-3,4-bis(oxidanyl)oxan-2-yl]oxymethyl]-5-[6-(hydroxymethyl)-5-methoxy-3-[2-methyl-2,3-bis(oxidanyl)propoxy]-4-oxidanyl-oxan-2-yl]oxy-3,4-bis(oxidanyl)oxan-2-yl]oxy-2-methyl-oxane-3,4-diol

> <PUBCHEM_IUPAC_TRADITIONAL_NAME>
5-[6-[(3,4-dihydroxy-5-methoxy-6-methylol-tetrahydropyran-2-yl)oxymethyl]-5-[3-(2,3-dihydroxy-2-methyl-propoxy)-4-hydroxy-5-methoxy-6-methylol-tetrahydropyran-2-yl]oxy-3,4-dihydroxy-tetrahydropyran-2-yl]oxy-2-methyl-6-methylol-tetrahydropyran-3,4-diol

> <PUBCHEM_IUPAC_INCHI>
InChI=1S/C31H56O22/c1-11-16(36)17(37)25(14(7-34)48-11)52-29-21(41)19(39)26(15(51-29)8-46-28-20(40)18(38)23(44-3)12(5-32)49-28)53-30-27(47-10-31(2,43)9-35)22(42)24(45-4)13(6-33)50-30/h11-30,32-43H,5-10H2,1-4H3

> <PUBCHEM_IUPAC_INCHIKEY>
VYIPQJQYDCRXMM-UHFFFAOYSA-N

> <PUBCHEM_XLOGP3_AA>
-8.1

> <PUBCHEM_EXACT_MASS>
780.32632341

> <PUBCHEM_MOLECULAR_FORMULA>
C31H56O22

> <PUBCHEM_MOLECULAR_WEIGHT>
780.8

> <PUBCHEM_SMILES>
CC1C(C(C(C(O1)CO)OC2C(C(C(C(O2)COC3C(C(C(C(O3)CO)OC)O)O)OC4C(C(C(C(O4)CO)OC)O)OCC(C)(CO)O)O)O)O)O

> <PUBCHEM_OPENEYE_CAN_SMILES>
CC1C(C(C(C(O1)CO)OC2C(C(C(C(O2)COC3C(C(C(C(O3)CO)OC)O)O)OC4C(C(C(C(O4)CO)OC)O)OCC(C)(CO)O)O)O)O)O

> <PUBCHEM_OPENEYE_ISO_SMILES>
CC1C(C(C(C(O1)CO)OC2C(C(C(C(O2)COC3C(C(C(C(O3)CO)OC)O)O)OC4C(C(C(C(O4)CO)OC)O)OCC(C)(CO)O)O)O)O)O

> <PUBCHEM_CACTVS_TPSA>
335

> <PUBCHEM_MONOISOTOPIC_WEIGHT>
780.32632341

> <PUBCHEM_TOTAL_CHARGE>
0

> <PUBCHEM_HEAVY_ATOM_COUNT>
53

> <PUBCHEM_ATOM_DEF_STEREO_COUNT>
0

> <PUBCHEM_ATOM_UDEF_STEREO_COUNT>
21

> <PUBCHEM_BOND_DEF_STEREO_COUNT>
0

> <PUBCHEM_BOND_UDEF_STEREO_COUNT>
0

> <PUBCHEM_ISOTOPIC_ATOM_COUNT>
0

> <PUBCHEM_COMPONENT_COUNT>
1

> <PUBCHEM_CACTVS_TAUTO_COUNT>
-1

> <PUBCHEM_COORDINATE_TYPE>
1
5
255

> <PUBCHEM_BONDANNOTATIONS>
33  10  3
31  12  3
32  13  3
37  14  3
43  15  3
40  16  3
41  17  3
23  2  3
29  2  3
48  20  3
24  35  3
27  3  3
28  3  3
34  42  3
36  44  3
38  46  3
45  49  3
39  6  3
25  7  3
30  8  3
26  9  3

$$$$
