26042
  -OEChem-04042513082D

  3  2  0     0  0  0  0  0  0999 V2000
    2.8660    0.0000    0.0000 Ti  0  0  0  0  0  0  0  0  0  0  0  0
    3.7320    0.5000    0.0000 O   0  0  0  0  0  0  0  0  0  0  0  0
    2.0000   -0.5000    0.0000 O   0  0  0  0  0  0  0  0  0  0  0  0
  1  2  2  0  0  0  0
  1  3  2  0  0  0  0
M  END
> <PUBCHEM_COMPOUND_CID>
26042

> <PUBCHEM_COMPOUND_CANONICALIZED>
1

> <PUBCHEM_CACTVS_COMPLEXITY>
18.3

> <PUBCHEM_CACTVS_HBOND_ACCEPTOR>
2

> <PUBCHEM_CACTVS_HBOND_DONOR>
0

> <PUBCHEM_CACTVS_ROTATABLE_BOND>
0

> <PUBCHEM_CACTVS_SUBSKEYS>
AAADcQAAMAAAAAIAAAAAAAAAAAAAAAAAAAAAAAAAAAAAAAAAAAAAAAAAAAAAAAAAAAAAAAAAAAAAAAAAAAAAAAAAAAAAAAAAAAAAAAAAAAAAAAAAAAAAAAAAAAAAAAAAAAAAAAAAAAAAAAAAAAAAAAAAAA==

> <PUBCHEM_IUPAC_OPENEYE_NAME>
dioxotitanium

> <PUBCHEM_IUPAC_CAS_NAME>
dioxotitanium

> <PUBCHEM_IUPAC_NAME_MARKUP>
dioxotitanium

> <PUBCHEM_IUPAC_NAME>
dioxotitanium

> <PUBCHEM_IUPAC_SYSTEMATIC_NAME>
bis(oxidanylidene)titanium

> <PUBCHEM_IUPAC_TRADITIONAL_NAME>
diketotitanium

> <PUBCHEM_IUPAC_INCHI>
InChI=1S/2O.Ti

> <PUBCHEM_IUPAC_INCHIKEY>
GWEVSGVZZGPLCZ-UHFFFAOYSA-N

> <PUBCHEM_EXACT_MASS>
79.9377699

> <PUBCHEM_MOLECULAR_FORMULA>
O2Ti

> <PUBCHEM_MOLECULAR_WEIGHT>
79.866

> <PUBCHEM_SMILES>
O=[Ti]=O

> <PUBCHEM_OPENEYE_CAN_SMILES>
O=[Ti]=O

> <PUBCHEM_OPENEYE_ISO_SMILES>
O=[Ti]=O

> <PUBCHEM_CACTVS_TPSA>
34.1

> <PUBCHEM_MONOISOTOPIC_WEIGHT>
79.9377699

> <PUBCHEM_TOTAL_CHARGE>
0

> <PUBCHEM_HEAVY_ATOM_COUNT>
3

> <PUBCHEM_ATOM_DEF_STEREO_COUNT>
0

> <PUBCHEM_ATOM_UDEF_STEREO_COUNT>
0

> <PUBCHEM_BOND_DEF_STEREO_COUNT>
0

> <PUBCHEM_BOND_UDEF_STEREO_COUNT>
0

> <PUBCHEM_ISOTOPIC_ATOM_COUNT>
0

> <PUBCHEM_COMPONENT_COUNT>
1

> <PUBCHEM_CACTVS_TAUTO_COUNT>
-1

> <PUBCHEM_COORDINATE_TYPE>
1
5
255

$$$$
