26370
  -OEChem-04042513092D

  5  3  0     0  0  0  0  0  0999 V2000
    2.0000   -0.8536    0.0000 Ca  0  2  0  0  0  0  0  0  0  0  0  0
    3.0000    0.1464    0.0000 Si  0  0  0  0  0  0  0  0  0  0  0  0
    2.0000    0.1464    0.0000 O   0  5  0  0  0  0  0  0  0  0  0  0
    3.0000   -0.8536    0.0000 O   0  5  0  0  0  0  0  0  0  0  0  0
    3.7071    0.8536    0.0000 O   0  0  0  0  0  0  0  0  0  0  0  0
  2  3  1  0  0  0  0
  2  4  1  0  0  0  0
  2  5  2  0  0  0  0
M  CHG  3   1   2   3  -1   4  -1
M  END
> <PUBCHEM_COMPOUND_CID>
26370

> <PUBCHEM_COMPOUND_CANONICALIZED>
1

> <PUBCHEM_CACTVS_COMPLEXITY>
18.8

> <PUBCHEM_CACTVS_HBOND_ACCEPTOR>
3

> <PUBCHEM_CACTVS_HBOND_DONOR>
0

> <PUBCHEM_CACTVS_ROTATABLE_BOND>
0

> <PUBCHEM_CACTVS_SUBSKEYS>
AAADcQAAMAgAAAgAAAAAAAAAAAAAAAAAAAAAAAAAAAAAAAAAAAAAAAAAAEAAAAAAAAAAAAAAAAAAAAAAAAAAAAAAAAAAAAAAAAAAAAAAAAAAAAAAAAAAAAAAAAAAAAAAAAAAAAAAAAAAAAAAAAAAAAAAAA==

> <PUBCHEM_IUPAC_OPENEYE_NAME>
calcium;dioxido(oxo)silane

> <PUBCHEM_IUPAC_CAS_NAME>
calcium;dioxido(oxo)silane

> <PUBCHEM_IUPAC_NAME_MARKUP>
calcium;dioxido(oxo)silane

> <PUBCHEM_IUPAC_NAME>
calcium;dioxido(oxo)silane

> <PUBCHEM_IUPAC_SYSTEMATIC_NAME>
calcium;bis(oxidanidyl)-oxidanylidene-silane

> <PUBCHEM_IUPAC_TRADITIONAL_NAME>
calcium;keto(dioxido)silane

> <PUBCHEM_IUPAC_INCHI>
InChI=1S/Ca.O3Si/c;1-4(2)3/q+2;-2

> <PUBCHEM_IUPAC_INCHIKEY>
OYACROKNLOSFPA-UHFFFAOYSA-N

> <PUBCHEM_EXACT_MASS>
115.9242612

> <PUBCHEM_MOLECULAR_FORMULA>
CaO3Si

> <PUBCHEM_MOLECULAR_WEIGHT>
116.16

> <PUBCHEM_SMILES>
[O-][Si](=O)[O-].[Ca+2]

> <PUBCHEM_OPENEYE_CAN_SMILES>
[O-][Si](=O)[O-].[Ca+2]

> <PUBCHEM_OPENEYE_ISO_SMILES>
[O-][Si](=O)[O-].[Ca+2]

> <PUBCHEM_CACTVS_TPSA>
63.2

> <PUBCHEM_MONOISOTOPIC_WEIGHT>
115.9242612

> <PUBCHEM_TOTAL_CHARGE>
0

> <PUBCHEM_HEAVY_ATOM_COUNT>
5

> <PUBCHEM_ATOM_DEF_STEREO_COUNT>
0

> <PUBCHEM_ATOM_UDEF_STEREO_COUNT>
0

> <PUBCHEM_BOND_DEF_STEREO_COUNT>
0

> <PUBCHEM_BOND_UDEF_STEREO_COUNT>
0

> <PUBCHEM_ISOTOPIC_ATOM_COUNT>
0

> <PUBCHEM_COMPONENT_COUNT>
2

> <PUBCHEM_CACTVS_TAUTO_COUNT>
-1

> <PUBCHEM_COORDINATE_TYPE>
1
5
255

$$$$
