2734078
  -OEChem-04042512132D

 42 42  0     0  0  0  0  0  0999 V2000
    3.3637    0.3094    0.0000 O   0  0  0  0  0  0  0  0  0  0  0  0
    3.7057   -0.6303    0.0000 O   0  0  0  0  0  0  0  0  0  0  0  0
    6.1994   -0.1906    0.0000 O   0  0  0  0  0  0  0  0  0  0  0  0
    5.5566   -0.9567    0.0000 O   0  0  0  0  0  0  0  0  0  0  0  0
    5.5566    1.5754    0.0000 O   0  0  0  0  0  0  0  0  0  0  0  0
    4.5718    1.7491    0.0000 O   0  0  0  0  0  0  0  0  0  0  0  0
    3.7057    1.2491    0.0000 C   0  0  0  0  0  0  0  0  0  0  0  0
    4.5718   -1.1303    0.0000 C   0  0  0  0  0  0  0  0  0  0  0  0
    6.1994    0.8094    0.0000 C   0  0  0  0  0  0  0  0  0  0  0  0
    2.7660    1.5911    0.0000 C   0  0  0  0  0  0  0  0  0  0  0  0
    4.0718   -1.9963    0.0000 C   0  0  0  0  0  0  0  0  0  0  0  0
    7.1994    0.8094    0.0000 C   0  0  0  0  0  0  0  0  0  0  0  0
    3.2057    2.1151    0.0000 C   0  0  0  0  0  0  0  0  0  0  0  0
    4.7454   -2.1151    0.0000 C   0  0  0  0  0  0  0  0  0  0  0  0
    6.9654    1.4522    0.0000 C   0  0  0  0  0  0  0  0  0  0  0  0
    2.0000    0.9483    0.0000 C   0  0  0  0  0  0  0  0  0  0  0  0
    3.0718   -1.9963    0.0000 C   0  0  0  0  0  0  0  0  0  0  0  0
    7.6994   -0.0566    0.0000 C   0  0  0  0  0  0  0  0  0  0  0  0
    3.0760    2.1280    0.0000 H   0  0  0  0  0  0  0  0  0  0  0  0
    2.2911    1.9896    0.0000 H   0  0  0  0  0  0  0  0  0  0  0  0
    3.9641   -2.6069    0.0000 H   0  0  0  0  0  0  0  0  0  0  0  0
    4.6544   -2.2084    0.0000 H   0  0  0  0  0  0  0  0  0  0  0  0
    7.7820    1.0214    0.0000 H   0  0  0  0  0  0  0  0  0  0  0  0
    7.0917    1.4200    0.0000 H   0  0  0  0  0  0  0  0  0  0  0  0
    3.7427    2.4251    0.0000 H   0  0  0  0  0  0  0  0  0  0  0  0
    2.8957    2.6520    0.0000 H   0  0  0  0  0  0  0  0  0  0  0  0
    2.6688    1.8051    0.0000 H   0  0  0  0  0  0  0  0  0  0  0  0
    4.1348   -2.2228    0.0000 H   0  0  0  0  0  0  0  0  0  0  0  0
    4.8531   -2.7257    0.0000 H   0  0  0  0  0  0  0  0  0  0  0  0
    5.3560   -2.0074    0.0000 H   0  0  0  0  0  0  0  0  0  0  0  0
    7.3639    0.9772    0.0000 H   0  0  0  0  0  0  0  0  0  0  0  0
    7.4404    1.8507    0.0000 H   0  0  0  0  0  0  0  0  0  0  0  0
    6.5669    1.9271    0.0000 H   0  0  0  0  0  0  0  0  0  0  0  0
    1.6015    1.4233    0.0000 H   0  0  0  0  0  0  0  0  0  0  0  0
    1.5250    0.5498    0.0000 H   0  0  0  0  0  0  0  0  0  0  0  0
    2.3985    0.4734    0.0000 H   0  0  0  0  0  0  0  0  0  0  0  0
    3.0718   -1.3763    0.0000 H   0  0  0  0  0  0  0  0  0  0  0  0
    2.4518   -1.9963    0.0000 H   0  0  0  0  0  0  0  0  0  0  0  0
    3.0718   -2.6163    0.0000 H   0  0  0  0  0  0  0  0  0  0  0  0
    7.1624   -0.3666    0.0000 H   0  0  0  0  0  0  0  0  0  0  0  0
    8.0094   -0.5936    0.0000 H   0  0  0  0  0  0  0  0  0  0  0  0
    8.2363    0.2534    0.0000 H   0  0  0  0  0  0  0  0  0  0  0  0
  1  2  1  0  0  0  0
  1  7  1  0  0  0  0
  2  8  1  0  0  0  0
  3  4  1  0  0  0  0
  3  9  1  0  0  0  0
  4  8  1  0  0  0  0
  5  6  1  0  0  0  0
  5  9  1  0  0  0  0
  6  7  1  0  0  0  0
  7 10  1  0  0  0  0
  7 13  1  0  0  0  0
  8 11  1  0  0  0  0
  8 14  1  0  0  0  0
  9 12  1  0  0  0  0
  9 15  1  0  0  0  0
 10 16  1  0  0  0  0
 10 19  1  0  0  0  0
 10 20  1  0  0  0  0
 11 17  1  0  0  0  0
 11 21  1  0  0  0  0
 11 22  1  0  0  0  0
 12 18  1  0  0  0  0
 12 23  1  0  0  0  0
 12 24  1  0  0  0  0
 13 25  1  0  0  0  0
 13 26  1  0  0  0  0
 13 27  1  0  0  0  0
 14 28  1  0  0  0  0
 14 29  1  0  0  0  0
 14 30  1  0  0  0  0
 15 31  1  0  0  0  0
 15 32  1  0  0  0  0
 15 33  1  0  0  0  0
 16 34  1  0  0  0  0
 16 35  1  0  0  0  0
 16 36  1  0  0  0  0
 17 37  1  0  0  0  0
 17 38  1  0  0  0  0
 17 39  1  0  0  0  0
 18 40  1  0  0  0  0
 18 41  1  0  0  0  0
 18 42  1  0  0  0  0
M  END
> <PUBCHEM_COMPOUND_CID>
2734078

> <PUBCHEM_COMPOUND_CANONICALIZED>
1

> <PUBCHEM_CACTVS_COMPLEXITY>
212

> <PUBCHEM_CACTVS_HBOND_ACCEPTOR>
6

> <PUBCHEM_CACTVS_HBOND_DONOR>
0

> <PUBCHEM_CACTVS_ROTATABLE_BOND>
3

> <PUBCHEM_CACTVS_SUBSKEYS>
AAADceBwOAAAAAAAAAAAAAAAAAAAAAAAAAAAAAAAAAAAAEgAAAAAGgAABAAACASAgAACCAAAAAAAAAAAAAAAAAAAAAAAAAAAAAAAAAAAAAAAAAAAAAAAAAAAAAAAAAAAAAAAAAAAAAAAAAAAAAAAAAAAAA==

> <PUBCHEM_IUPAC_OPENEYE_NAME>
3,6,9-triethyl-3,6,9-trimethyl-1,2,4,5,7,8-hexaoxonane

> <PUBCHEM_IUPAC_CAS_NAME>
3,6,9-triethyl-3,6,9-trimethyl-1,2,4,5,7,8-hexaoxonane

> <PUBCHEM_IUPAC_NAME_MARKUP>
3,6,9-triethyl-3,6,9-trimethyl-1,2,4,5,7,8-hexaoxonane

> <PUBCHEM_IUPAC_NAME>
3,6,9-triethyl-3,6,9-trimethyl-1,2,4,5,7,8-hexaoxonane

> <PUBCHEM_IUPAC_SYSTEMATIC_NAME>
3,6,9-triethyl-3,6,9-trimethyl-1,2,4,5,7,8-hexaoxonane

> <PUBCHEM_IUPAC_TRADITIONAL_NAME>
3,6,9-triethyl-3,6,9-trimethyl-1,2,4,5,7,8-hexaoxonane

> <PUBCHEM_IUPAC_INCHI>
InChI=1S/C12H24O6/c1-7-10(4)13-15-11(5,8-2)17-18-12(6,9-3)16-14-10/h7-9H2,1-6H3

> <PUBCHEM_IUPAC_INCHIKEY>
KVWLLOIEGKLBPA-UHFFFAOYSA-N

> <PUBCHEM_XLOGP3_AA>
3.4

> <PUBCHEM_EXACT_MASS>
264.15728848

> <PUBCHEM_MOLECULAR_FORMULA>
C12H24O6

> <PUBCHEM_MOLECULAR_WEIGHT>
264.31

> <PUBCHEM_SMILES>
CCC1(OOC(OOC(OO1)(C)CC)(C)CC)C

> <PUBCHEM_OPENEYE_CAN_SMILES>
CCC1(OOC(OOC(OO1)(C)CC)(C)CC)C

> <PUBCHEM_OPENEYE_ISO_SMILES>
CCC1(OOC(OOC(OO1)(C)CC)(C)CC)C

> <PUBCHEM_CACTVS_TPSA>
55.4

> <PUBCHEM_MONOISOTOPIC_WEIGHT>
264.15728848

> <PUBCHEM_TOTAL_CHARGE>
0

> <PUBCHEM_HEAVY_ATOM_COUNT>
18

> <PUBCHEM_ATOM_DEF_STEREO_COUNT>
0

> <PUBCHEM_ATOM_UDEF_STEREO_COUNT>
0

> <PUBCHEM_BOND_DEF_STEREO_COUNT>
0

> <PUBCHEM_BOND_UDEF_STEREO_COUNT>
0

> <PUBCHEM_ISOTOPIC_ATOM_COUNT>
0

> <PUBCHEM_COMPONENT_COUNT>
1

> <PUBCHEM_CACTVS_TAUTO_COUNT>
-1

> <PUBCHEM_COORDINATE_TYPE>
1
5
255

$$$$
