27756
  -OEChem-04042505442D

 21 22  0     1  0  0  0  0  0999 V2000
    5.0503    0.7844    0.0000 C   0  0  3  0  0  0  0  0  0  0  0  0
    4.7915   -0.1815    0.0000 C   0  0  3  0  0  0  0  0  0  0  0  0
    4.3137    1.7670    0.0000 C   0  0  0  0  0  0  0  0  0  0  0  0
    3.0768    0.1661    0.0000 C   0  0  0  0  0  0  0  0  0  0  0  0
    3.4188   -0.7735    0.0000 C   0  0  0  0  0  0  0  0  0  0  0  0
    6.4493    0.2756    0.0000 C   0  0  0  0  0  0  0  0  0  0  0  0
    6.1905   -0.6903    0.0000 C   0  0  0  0  0  0  0  0  0  0  0  0
    2.9962   -1.6799    0.0000 C   0  0  0  0  0  0  0  0  0  0  0  0
    2.0000   -1.7670    0.0000 C   0  0  0  0  0  0  0  0  0  0  0  0
    5.0363    0.1646    0.0000 H   0  0  0  0  0  0  0  0  0  0  0  0
    4.8096   -0.8013    0.0000 H   0  0  0  0  0  0  0  0  0  0  0  0
    4.6315    2.2994    0.0000 H   0  0  0  0  0  0  0  0  0  0  0  0
    3.7006    1.8590    0.0000 H   0  0  0  0  0  0  0  0  0  0  0  0
    2.8825    0.7549    0.0000 H   0  0  0  0  0  0  0  0  0  0  0  0
    2.4910   -0.0371    0.0000 H   0  0  0  0  0  0  0  0  0  0  0  0
    6.9992    0.5619    0.0000 H   0  0  0  0  0  0  0  0  0  0  0  0
    6.4768   -1.2403    0.0000 H   0  0  0  0  0  0  0  0  0  0  0  0
    3.3518   -2.1877    0.0000 H   0  0  0  0  0  0  0  0  0  0  0  0
    1.9460   -1.1494    0.0000 H   0  0  0  0  0  0  0  0  0  0  0  0
    1.3824   -1.8210    0.0000 H   0  0  0  0  0  0  0  0  0  0  0  0
    2.0540   -2.3846    0.0000 H   0  0  0  0  0  0  0  0  0  0  0  0
  1  3  1  0  0  0  0
  1  4  1  0  0  0  0
  1  6  1  0  0  0  0
  1 10  1  0  0  0  0
  2  3  1  0  0  0  0
  2  5  1  0  0  0  0
  2  7  1  0  0  0  0
  2 11  1  0  0  0  0
  3 12  1  0  0  0  0
  3 13  1  0  0  0  0
  4  5  1  0  0  0  0
  4 14  1  0  0  0  0
  4 15  1  0  0  0  0
  5  8  2  3  0  0  0
  6  7  2  0  0  0  0
  6 16  1  0  0  0  0
  7 17  1  0  0  0  0
  8  9  1  0  0  0  0
  8 18  1  0  0  0  0
  9 19  1  0  0  0  0
  9 20  1  0  0  0  0
  9 21  1  0  0  0  0
M  END
> <PUBCHEM_COMPOUND_CID>
27756

> <PUBCHEM_COMPOUND_CANONICALIZED>
1

> <PUBCHEM_CACTVS_COMPLEXITY>
174

> <PUBCHEM_CACTVS_HBOND_ACCEPTOR>
0

> <PUBCHEM_CACTVS_HBOND_DONOR>
0

> <PUBCHEM_CACTVS_ROTATABLE_BOND>
0

> <PUBCHEM_CACTVS_SUBSKEYS>
AAADccBwAAAAAAAAAAAAAAAAAAAAAYIAAAAgAAAAAAAAAAAAAAAAGAAAAAAADQCAAAACAAAAAACAAiBCAAAAAAAgAAAICAAAAAgAAAIAAQAAAAAAgAAIAAMAAAAOAAAAAAAAAAAAAAAAAAAAAQAAAAAAAA==

> <PUBCHEM_IUPAC_OPENEYE_NAME>
5-ethylidenebicyclo[2.2.1]hept-2-ene

> <PUBCHEM_IUPAC_CAS_NAME>
5-ethylidenebicyclo[2.2.1]hept-2-ene

> <PUBCHEM_IUPAC_NAME_MARKUP>
5-ethylidenebicyclo[2.2.1]hept-2-ene

> <PUBCHEM_IUPAC_NAME>
5-ethylidenebicyclo[2.2.1]hept-2-ene

> <PUBCHEM_IUPAC_SYSTEMATIC_NAME>
5-ethylidenebicyclo[2.2.1]hept-2-ene

> <PUBCHEM_IUPAC_TRADITIONAL_NAME>
5-ethylidenebicyclo[2.2.1]hept-2-ene

> <PUBCHEM_IUPAC_INCHI>
InChI=1S/C9H12/c1-2-8-5-7-3-4-9(8)6-7/h2-4,7,9H,5-6H2,1H3

> <PUBCHEM_IUPAC_INCHIKEY>
OJOWICOBYCXEKR-UHFFFAOYSA-N

> <PUBCHEM_XLOGP3_AA>
2.2

> <PUBCHEM_EXACT_MASS>
120.093900383

> <PUBCHEM_MOLECULAR_FORMULA>
C9H12

> <PUBCHEM_MOLECULAR_WEIGHT>
120.19

> <PUBCHEM_SMILES>
CC=C1CC2CC1C=C2

> <PUBCHEM_OPENEYE_CAN_SMILES>
CC=C1CC2CC1C=C2

> <PUBCHEM_OPENEYE_ISO_SMILES>
CC=C1CC2CC1C=C2

> <PUBCHEM_CACTVS_TPSA>
0

> <PUBCHEM_MONOISOTOPIC_WEIGHT>
120.093900383

> <PUBCHEM_TOTAL_CHARGE>
0

> <PUBCHEM_HEAVY_ATOM_COUNT>
9

> <PUBCHEM_ATOM_DEF_STEREO_COUNT>
0

> <PUBCHEM_ATOM_UDEF_STEREO_COUNT>
2

> <PUBCHEM_BOND_DEF_STEREO_COUNT>
0

> <PUBCHEM_BOND_UDEF_STEREO_COUNT>
1

> <PUBCHEM_ISOTOPIC_ATOM_COUNT>
0

> <PUBCHEM_COMPONENT_COUNT>
1

> <PUBCHEM_CACTVS_TAUTO_COUNT>
-1

> <PUBCHEM_COORDINATE_TYPE>
1
5
255

> <PUBCHEM_BONDANNOTATIONS>
1  3  3
2  3  3
5  8  1

$$$$
