2776282
  -OEChem-04042506012D

 30 28  0     0  0  0  0  0  0999 V2000
    3.9641    1.5000    0.0000 F   0  0  0  0  0  0  0  0  0  0  0  0
    2.9641    3.2320    0.0000 F   0  0  0  0  0  0  0  0  0  0  0  0
    3.8301    3.7320    0.0000 F   0  0  0  0  0  0  0  0  0  0  0  0
    4.8301    2.0000    0.0000 F   0  0  0  0  0  0  0  0  0  0  0  0
    2.0981    2.7320    0.0000 F   0  0  0  0  0  0  0  0  0  0  0  0
    3.0981    1.0000    0.0000 F   0  0  0  0  0  0  0  0  0  0  0  0
    5.6962    2.5000    0.0000 F   0  0  0  0  0  0  0  0  0  0  0  0
    4.6962    4.2320    0.0000 F   0  0  0  0  0  0  0  0  0  0  0  0
    1.2320    2.2320    0.0000 F   0  0  0  0  0  0  0  0  0  0  0  0
    2.2320    0.5000    0.0000 F   0  0  0  0  0  0  0  0  0  0  0  0
    6.5622    3.0000    0.0000 F   0  0  0  0  0  0  0  0  0  0  0  0
    5.5622    4.7320    0.0000 F   0  0  0  0  0  0  0  0  0  0  0  0
    0.0000    0.3660    0.0000 F   0  0  0  0  0  0  0  0  0  0  0  0
    0.3660    1.7320    0.0000 F   0  0  0  0  0  0  0  0  0  0  0  0
    1.3660    0.0000    0.0000 F   0  0  0  0  0  0  0  0  0  0  0  0
    7.7942    3.8660    0.0000 O   0  5  0  0  0  0  0  0  0  0  0  0
    6.9282    5.3660    0.0000 O   0  0  0  0  0  0  0  0  0  0  0  0
    3.8971    7.9030    0.0000 N   0  3  0  0  0  0  0  0  0  0  0  0
    3.4641    2.3660    0.0000 C   0  0  0  0  0  0  0  0  0  0  0  0
    4.3301    2.8660    0.0000 C   0  0  0  0  0  0  0  0  0  0  0  0
    2.5981    1.8660    0.0000 C   0  0  0  0  0  0  0  0  0  0  0  0
    5.1962    3.3660    0.0000 C   0  0  0  0  0  0  0  0  0  0  0  0
    1.7320    1.3660    0.0000 C   0  0  0  0  0  0  0  0  0  0  0  0
    6.0622    3.8660    0.0000 C   0  0  0  0  0  0  0  0  0  0  0  0
    0.8660    0.8660    0.0000 C   0  0  0  0  0  0  0  0  0  0  0  0
    6.9282    4.3660    0.0000 C   0  0  0  0  0  0  0  0  0  0  0  0
    4.4340    8.2130    0.0000 H   0  0  0  0  0  0  0  0  0  0  0  0
    3.3602    7.5930    0.0000 H   0  0  0  0  0  0  0  0  0  0  0  0
    3.5871    8.4399    0.0000 H   0  0  0  0  0  0  0  0  0  0  0  0
    4.2071    7.3660    0.0000 H   0  0  0  0  0  0  0  0  0  0  0  0
  1 19  1  0  0  0  0
  2 19  1  0  0  0  0
  3 20  1  0  0  0  0
  4 20  1  0  0  0  0
  5 21  1  0  0  0  0
  6 21  1  0  0  0  0
  7 22  1  0  0  0  0
  8 22  1  0  0  0  0
  9 23  1  0  0  0  0
 10 23  1  0  0  0  0
 11 24  1  0  0  0  0
 12 24  1  0  0  0  0
 13 25  1  0  0  0  0
 14 25  1  0  0  0  0
 15 25  1  0  0  0  0
 16 26  1  0  0  0  0
 17 26  2  0  0  0  0
 18 27  1  0  0  0  0
 18 28  1  0  0  0  0
 18 29  1  0  0  0  0
 18 30  1  0  0  0  0
 19 20  1  0  0  0  0
 19 21  1  0  0  0  0
 20 22  1  0  0  0  0
 21 23  1  0  0  0  0
 22 24  1  0  0  0  0
 23 25  1  0  0  0  0
 24 26  1  0  0  0  0
M  CHG  2  16  -1  18   1
M  END
> <PUBCHEM_COMPOUND_CID>
2776282

> <PUBCHEM_COMPOUND_CANONICALIZED>
1

> <PUBCHEM_CACTVS_COMPLEXITY>
525

> <PUBCHEM_CACTVS_HBOND_ACCEPTOR>
17

> <PUBCHEM_CACTVS_HBOND_DONOR>
1

> <PUBCHEM_CACTVS_ROTATABLE_BOND>
5

> <PUBCHEM_CACTVS_SUBSKEYS>
AAADcYByMcAAAAAAAAAAAAAAAAAAAAAAAAAAAAAAAAAAAAAAAAAACwAQAAAACAAAgBAACAAAAAAIAACQCAAAAAAAAAAAAAEAAAAAABIAAAAAAAAEAAAAAAGIyKCAAAAAAAAAAAAAAAAAAAAAAAAAAAAAAA==

> <PUBCHEM_IUPAC_OPENEYE_NAME>
ammonium;2,2,3,3,4,4,5,5,6,6,7,7,8,8,8-pentadecafluorooctanoate

> <PUBCHEM_IUPAC_CAS_NAME>
ammonium;2,2,3,3,4,4,5,5,6,6,7,7,8,8,8-pentadecafluorooctanoate

> <PUBCHEM_IUPAC_NAME_MARKUP>
azanium;2,2,3,3,4,4,5,5,6,6,7,7,8,8,8-pentadecafluorooctanoate

> <PUBCHEM_IUPAC_NAME>
azanium;2,2,3,3,4,4,5,5,6,6,7,7,8,8,8-pentadecafluorooctanoate

> <PUBCHEM_IUPAC_SYSTEMATIC_NAME>
azanium;2,2,3,3,4,4,5,5,6,6,7,7,8,8,8-pentadecakis(fluoranyl)octanoate

> <PUBCHEM_IUPAC_TRADITIONAL_NAME>
ammonium;2,2,3,3,4,4,5,5,6,6,7,7,8,8,8-pentadecafluorocaprylate

> <PUBCHEM_IUPAC_INCHI>
InChI=1S/C8HF15O2.H3N/c9-2(10,1(24)25)3(11,12)4(13,14)5(15,16)6(17,18)7(19,20)8(21,22)23;/h(H,24,25);1H3

> <PUBCHEM_IUPAC_INCHIKEY>
YOALFLHFSFEMLP-UHFFFAOYSA-N

> <PUBCHEM_EXACT_MASS>
431.0002508

> <PUBCHEM_MOLECULAR_FORMULA>
C8H4F15NO2

> <PUBCHEM_MOLECULAR_WEIGHT>
431.10

> <PUBCHEM_SMILES>
C(=O)(C(C(C(C(C(C(C(F)(F)F)(F)F)(F)F)(F)F)(F)F)(F)F)(F)F)[O-].[NH4+]

> <PUBCHEM_OPENEYE_CAN_SMILES>
C(=O)(C(C(C(C(C(C(C(F)(F)F)(F)F)(F)F)(F)F)(F)F)(F)F)(F)F)[O-].[NH4+]

> <PUBCHEM_OPENEYE_ISO_SMILES>
C(=O)(C(C(C(C(C(C(C(F)(F)F)(F)F)(F)F)(F)F)(F)F)(F)F)(F)F)[O-].[NH4+]

> <PUBCHEM_CACTVS_TPSA>
41.1

> <PUBCHEM_MONOISOTOPIC_WEIGHT>
431.0002508

> <PUBCHEM_TOTAL_CHARGE>
0

> <PUBCHEM_HEAVY_ATOM_COUNT>
26

> <PUBCHEM_ATOM_DEF_STEREO_COUNT>
0

> <PUBCHEM_ATOM_UDEF_STEREO_COUNT>
0

> <PUBCHEM_BOND_DEF_STEREO_COUNT>
0

> <PUBCHEM_BOND_UDEF_STEREO_COUNT>
0

> <PUBCHEM_ISOTOPIC_ATOM_COUNT>
0

> <PUBCHEM_COMPONENT_COUNT>
2

> <PUBCHEM_CACTVS_TAUTO_COUNT>
-1

> <PUBCHEM_COORDINATE_TYPE>
1
5
255

$$$$
