3020987
  -OEChem-04042506022D

 72 72  0     1  0  0  0  0  0999 V2000
   12.3923   -1.0000    0.0000 O   0  0  0  0  0  0  0  0  0  0  0  0
    8.9282   -3.0000    0.0000 O   0  0  0  0  0  0  0  0  0  0  0  0
   10.6603   -1.0000    0.0000 O   0  0  0  0  0  0  0  0  0  0  0  0
    9.7942   -1.5000    0.0000 O   0  0  0  0  0  0  0  0  0  0  0  0
   13.2583    1.5000    0.0000 C   0  0  3  0  0  0  0  0  0  0  0  0
   14.1244    2.0000    0.0000 C   0  0  0  0  0  0  0  0  0  0  0  0
    5.4641   -3.0000    0.0000 C   0  0  3  0  0  0  0  0  0  0  0  0
   13.2583    0.5000    0.0000 C   0  0  0  0  0  0  0  0  0  0  0  0
   12.3923    2.0000    0.0000 C   0  0  0  0  0  0  0  0  0  0  0  0
    4.5981   -2.5000    0.0000 C   0  0  0  0  0  0  0  0  0  0  0  0
   14.1244    3.0000    0.0000 C   0  0  0  0  0  0  0  0  0  0  0  0
    6.3301   -2.5000    0.0000 C   0  0  0  0  0  0  0  0  0  0  0  0
    3.7320   -3.0000    0.0000 C   0  0  0  0  0  0  0  0  0  0  0  0
    7.1962   -3.0000    0.0000 C   0  0  0  0  0  0  0  0  0  0  0  0
   12.3923    0.0000    0.0000 C   0  0  0  0  0  0  0  0  0  0  0  0
   14.9904    3.5000    0.0000 C   0  0  0  0  0  0  0  0  0  0  0  0
    5.4641   -4.0000    0.0000 C   0  0  0  0  0  0  0  0  0  0  0  0
   12.3923    3.0000    0.0000 C   0  0  0  0  0  0  0  0  0  0  0  0
    2.8660   -2.5000    0.0000 C   0  0  0  0  0  0  0  0  0  0  0  0
    8.0622   -2.5000    0.0000 C   0  0  0  0  0  0  0  0  0  0  0  0
   14.9904    4.5000    0.0000 C   0  0  0  0  0  0  0  0  0  0  0  0
    2.0000   -3.0000    0.0000 C   0  0  0  0  0  0  0  0  0  0  0  0
   11.5263   -1.5000    0.0000 C   0  0  0  0  0  0  0  0  0  0  0  0
   11.5263   -2.5000    0.0000 C   0  0  0  0  0  0  0  0  0  0  0  0
   10.6603   -3.0000    0.0000 C   0  0  0  0  0  0  0  0  0  0  0  0
    9.7942   -2.5000    0.0000 C   0  0  0  0  0  0  0  0  0  0  0  0
   12.3923   -3.0000    0.0000 C   0  0  0  0  0  0  0  0  0  0  0  0
   10.6603   -4.0000    0.0000 C   0  0  0  0  0  0  0  0  0  0  0  0
   12.3923   -4.0000    0.0000 C   0  0  0  0  0  0  0  0  0  0  0  0
   11.5263   -4.5000    0.0000 C   0  0  0  0  0  0  0  0  0  0  0  0
   13.7953    1.1900    0.0000 H   0  0  0  0  0  0  0  0  0  0  0  0
   14.3364    1.4174    0.0000 H   0  0  0  0  0  0  0  0  0  0  0  0
   14.7349    2.1077    0.0000 H   0  0  0  0  0  0  0  0  0  0  0  0
    6.0010   -3.3100    0.0000 H   0  0  0  0  0  0  0  0  0  0  0  0
   13.4704   -0.0826    0.0000 H   0  0  0  0  0  0  0  0  0  0  0  0
   13.8689    0.6077    0.0000 H   0  0  0  0  0  0  0  0  0  0  0  0
   11.7817    2.1077    0.0000 H   0  0  0  0  0  0  0  0  0  0  0  0
   12.1803    1.4174    0.0000 H   0  0  0  0  0  0  0  0  0  0  0  0
    4.9966   -2.0250    0.0000 H   0  0  0  0  0  0  0  0  0  0  0  0
    4.1996   -2.0250    0.0000 H   0  0  0  0  0  0  0  0  0  0  0  0
   13.9123    3.5826    0.0000 H   0  0  0  0  0  0  0  0  0  0  0  0
   13.5138    2.8923    0.0000 H   0  0  0  0  0  0  0  0  0  0  0  0
    6.7287   -2.0250    0.0000 H   0  0  0  0  0  0  0  0  0  0  0  0
    5.9316   -2.0250    0.0000 H   0  0  0  0  0  0  0  0  0  0  0  0
    3.3335   -3.4750    0.0000 H   0  0  0  0  0  0  0  0  0  0  0  0
    4.1306   -3.4750    0.0000 H   0  0  0  0  0  0  0  0  0  0  0  0
    6.7976   -3.4750    0.0000 H   0  0  0  0  0  0  0  0  0  0  0  0
    7.5947   -3.4750    0.0000 H   0  0  0  0  0  0  0  0  0  0  0  0
   12.1803    0.5826    0.0000 H   0  0  0  0  0  0  0  0  0  0  0  0
   11.7817   -0.1077    0.0000 H   0  0  0  0  0  0  0  0  0  0  0  0
   15.2024    2.9174    0.0000 H   0  0  0  0  0  0  0  0  0  0  0  0
   15.6010    3.6077    0.0000 H   0  0  0  0  0  0  0  0  0  0  0  0
    4.8441   -4.0000    0.0000 H   0  0  0  0  0  0  0  0  0  0  0  0
    5.4641   -4.6200    0.0000 H   0  0  0  0  0  0  0  0  0  0  0  0
    6.0841   -4.0000    0.0000 H   0  0  0  0  0  0  0  0  0  0  0  0
   13.0123    3.0000    0.0000 H   0  0  0  0  0  0  0  0  0  0  0  0
   12.3923    3.6200    0.0000 H   0  0  0  0  0  0  0  0  0  0  0  0
   11.7723    3.0000    0.0000 H   0  0  0  0  0  0  0  0  0  0  0  0
    3.2646   -2.0250    0.0000 H   0  0  0  0  0  0  0  0  0  0  0  0
    2.4675   -2.0250    0.0000 H   0  0  0  0  0  0  0  0  0  0  0  0
    8.4607   -2.0250    0.0000 H   0  0  0  0  0  0  0  0  0  0  0  0
    7.6636   -2.0250    0.0000 H   0  0  0  0  0  0  0  0  0  0  0  0
   15.6104    4.5000    0.0000 H   0  0  0  0  0  0  0  0  0  0  0  0
   14.9904    5.1200    0.0000 H   0  0  0  0  0  0  0  0  0  0  0  0
   14.3704    4.5000    0.0000 H   0  0  0  0  0  0  0  0  0  0  0  0
    1.6900   -2.4631    0.0000 H   0  0  0  0  0  0  0  0  0  0  0  0
    1.4631   -3.3100    0.0000 H   0  0  0  0  0  0  0  0  0  0  0  0
    2.3100   -3.5369    0.0000 H   0  0  0  0  0  0  0  0  0  0  0  0
   12.9292   -2.6900    0.0000 H   0  0  0  0  0  0  0  0  0  0  0  0
   10.1233   -4.3100    0.0000 H   0  0  0  0  0  0  0  0  0  0  0  0
   12.9292   -4.3100    0.0000 H   0  0  0  0  0  0  0  0  0  0  0  0
   11.5263   -5.1200    0.0000 H   0  0  0  0  0  0  0  0  0  0  0  0
  1 15  1  0  0  0  0
  1 23  1  0  0  0  0
  2 20  1  0  0  0  0
  2 26  1  0  0  0  0
  3 23  2  0  0  0  0
  4 26  2  0  0  0  0
  5  6  1  0  0  0  0
  5  8  1  0  0  0  0
  5  9  1  0  0  0  0
  5 31  1  0  0  0  0
  6 11  1  0  0  0  0
  6 32  1  0  0  0  0
  6 33  1  0  0  0  0
  7 10  1  0  0  0  0
  7 12  1  0  0  0  0
  7 17  1  0  0  0  0
  7 34  1  0  0  0  0
  8 15  1  0  0  0  0
  8 35  1  0  0  0  0
  8 36  1  0  0  0  0
  9 18  1  0  0  0  0
  9 37  1  0  0  0  0
  9 38  1  0  0  0  0
 10 13  1  0  0  0  0
 10 39  1  0  0  0  0
 10 40  1  0  0  0  0
 11 16  1  0  0  0  0
 11 41  1  0  0  0  0
 11 42  1  0  0  0  0
 12 14  1  0  0  0  0
 12 43  1  0  0  0  0
 12 44  1  0  0  0  0
 13 19  1  0  0  0  0
 13 45  1  0  0  0  0
 13 46  1  0  0  0  0
 14 20  1  0  0  0  0
 14 47  1  0  0  0  0
 14 48  1  0  0  0  0
 15 49  1  0  0  0  0
 15 50  1  0  0  0  0
 16 21  1  0  0  0  0
 16 51  1  0  0  0  0
 16 52  1  0  0  0  0
 17 53  1  0  0  0  0
 17 54  1  0  0  0  0
 17 55  1  0  0  0  0
 18 56  1  0  0  0  0
 18 57  1  0  0  0  0
 18 58  1  0  0  0  0
 19 22  1  0  0  0  0
 19 59  1  0  0  0  0
 19 60  1  0  0  0  0
 20 61  1  0  0  0  0
 20 62  1  0  0  0  0
 21 63  1  0  0  0  0
 21 64  1  0  0  0  0
 21 65  1  0  0  0  0
 22 66  1  0  0  0  0
 22 67  1  0  0  0  0
 22 68  1  0  0  0  0
 23 24  1  0  0  0  0
 24 25  1  0  0  0  0
 24 27  2  0  0  0  0
 25 26  1  0  0  0  0
 25 28  2  0  0  0  0
 27 29  1  0  0  0  0
 27 69  1  0  0  0  0
 28 30  1  0  0  0  0
 28 70  1  0  0  0  0
 29 30  2  0  0  0  0
 29 71  1  0  0  0  0
 30 72  1  0  0  0  0
M  END
> <PUBCHEM_COMPOUND_CID>
3020987

> <PUBCHEM_COMPOUND_CANONICALIZED>
1

> <PUBCHEM_CACTVS_COMPLEXITY>
462

> <PUBCHEM_CACTVS_HBOND_ACCEPTOR>
4

> <PUBCHEM_CACTVS_HBOND_DONOR>
0

> <PUBCHEM_CACTVS_ROTATABLE_BOND>
18

> <PUBCHEM_CACTVS_SUBSKEYS>
AAADcfB4OAAAAAAAAAAAAAAAAAAAAAAAAAAwAAAAAAAAAAABAAAAGgAAAAAADQCgmAIyCIAABACIAiDSCAACAAAkAAAIiAEACMgIJjKANRiCMQAkwAEIqYfLyKCOgAAAAAAQAAAAAAAAACAAAAAAAAAAAA==

> <PUBCHEM_IUPAC_OPENEYE_NAME>
O2-(3-ethylheptyl) O1-(4-methyloctyl) benzene-1,2-dicarboxylate

> <PUBCHEM_IUPAC_CAS_NAME>
benzene-1,2-dicarboxylic acid O2-(3-ethylheptyl) ester O1-(4-methyloctyl) ester

> <PUBCHEM_IUPAC_NAME_MARKUP>
2-<I>O</I>-(3-ethylheptyl) 1-<I>O</I>-(4-methyloctyl) benzene-1,2-dicarboxylate

> <PUBCHEM_IUPAC_NAME>
2-O-(3-ethylheptyl) 1-O-(4-methyloctyl) benzene-1,2-dicarboxylate

> <PUBCHEM_IUPAC_SYSTEMATIC_NAME>
O2-(3-ethylheptyl) O1-(4-methyloctyl) benzene-1,2-dicarboxylate

> <PUBCHEM_IUPAC_TRADITIONAL_NAME>
benzene-1,2-dicarboxylic acid O2-(3-ethylheptyl) ester O1-(4-methyloctyl) ester

> <PUBCHEM_IUPAC_INCHI>
InChI=1S/C26H42O4/c1-5-8-13-21(4)14-12-19-29-25(27)23-16-10-11-17-24(23)26(28)30-20-18-22(7-3)15-9-6-2/h10-11,16-17,21-22H,5-9,12-15,18-20H2,1-4H3

> <PUBCHEM_IUPAC_INCHIKEY>
IUYBJQLDYPVZHG-UHFFFAOYSA-N

> <PUBCHEM_XLOGP3>
9.7

> <PUBCHEM_EXACT_MASS>
418.30830982

> <PUBCHEM_MOLECULAR_FORMULA>
C26H42O4

> <PUBCHEM_MOLECULAR_WEIGHT>
418.6

> <PUBCHEM_SMILES>
CCCCC(C)CCCOC(=O)C1=CC=CC=C1C(=O)OCCC(CC)CCCC

> <PUBCHEM_OPENEYE_CAN_SMILES>
CCCCC(C)CCCOC(=O)C1=CC=CC=C1C(=O)OCCC(CC)CCCC

> <PUBCHEM_OPENEYE_ISO_SMILES>
CCCCC(C)CCCOC(=O)C1=CC=CC=C1C(=O)OCCC(CC)CCCC

> <PUBCHEM_CACTVS_TPSA>
52.6

> <PUBCHEM_MONOISOTOPIC_WEIGHT>
418.30830982

> <PUBCHEM_TOTAL_CHARGE>
0

> <PUBCHEM_HEAVY_ATOM_COUNT>
30

> <PUBCHEM_ATOM_DEF_STEREO_COUNT>
0

> <PUBCHEM_ATOM_UDEF_STEREO_COUNT>
2

> <PUBCHEM_BOND_DEF_STEREO_COUNT>
0

> <PUBCHEM_BOND_UDEF_STEREO_COUNT>
0

> <PUBCHEM_ISOTOPIC_ATOM_COUNT>
0

> <PUBCHEM_COMPONENT_COUNT>
1

> <PUBCHEM_CACTVS_TAUTO_COUNT>
-1

> <PUBCHEM_COORDINATE_TYPE>
1
5
255

> <PUBCHEM_BONDANNOTATIONS>
24  25  8
24  27  8
25  28  8
27  29  8
28  30  8
29  30  8
5  9  3
7  17  3

$$$$
