3091232
  -OEChem-04042512262D

 52 53  0     0  0  0  0  0  0999 V2000
    9.4651    2.7500    0.0000 O   0  0  0  0  0  0  0  0  0  0  0  0
    3.4030   -2.7500    0.0000 O   0  0  0  0  0  0  0  0  0  0  0  0
    7.7331    2.7500    0.0000 N   0  0  0  0  0  0  0  0  0  0  0  0
    5.1350   -2.7500    0.0000 N   0  0  0  0  0  0  0  0  0  0  0  0
    6.8671    4.2500    0.0000 N   0  0  0  0  0  0  0  0  0  0  0  0
    2.5369   -4.2500    0.0000 N   0  0  0  0  0  0  0  0  0  0  0  0
    6.8671    0.2500    0.0000 C   0  0  0  0  0  0  0  0  0  0  0  0
    6.0010   -0.2500    0.0000 C   0  0  0  0  0  0  0  0  0  0  0  0
    6.8671    1.2500    0.0000 C   0  0  0  0  0  0  0  0  0  0  0  0
    6.0010   -1.2500    0.0000 C   0  0  0  0  0  0  0  0  0  0  0  0
    7.7331    1.7500    0.0000 C   0  0  0  0  0  0  0  0  0  0  0  0
    5.1350   -1.7500    0.0000 C   0  0  0  0  0  0  0  0  0  0  0  0
    8.5991    3.2500    0.0000 C   0  0  0  0  0  0  0  0  0  0  0  0
    4.2690   -3.2500    0.0000 C   0  0  0  0  0  0  0  0  0  0  0  0
    8.5991    4.2500    0.0000 C   0  0  0  0  0  0  0  0  0  0  0  0
    4.2690   -4.2500    0.0000 C   0  0  0  0  0  0  0  0  0  0  0  0
    7.7331    4.7500    0.0000 C   0  0  0  0  0  0  0  0  0  0  0  0
    3.4030   -4.7500    0.0000 C   0  0  0  0  0  0  0  0  0  0  0  0
    9.4651    4.7500    0.0000 C   0  0  0  0  0  0  0  0  0  0  0  0
    5.1350   -4.7500    0.0000 C   0  0  0  0  0  0  0  0  0  0  0  0
    7.7331    5.7500    0.0000 C   0  0  0  0  0  0  0  0  0  0  0  0
    3.4030   -5.7500    0.0000 C   0  0  0  0  0  0  0  0  0  0  0  0
    9.4651    5.7500    0.0000 C   0  0  0  0  0  0  0  0  0  0  0  0
    5.1350   -5.7500    0.0000 C   0  0  0  0  0  0  0  0  0  0  0  0
    8.5991    6.2500    0.0000 C   0  0  0  0  0  0  0  0  0  0  0  0
    4.2690   -6.2500    0.0000 C   0  0  0  0  0  0  0  0  0  0  0  0
    7.0791   -0.3326    0.0000 H   0  0  0  0  0  0  0  0  0  0  0  0
    7.4776    0.3577    0.0000 H   0  0  0  0  0  0  0  0  0  0  0  0
    5.7890    0.3326    0.0000 H   0  0  0  0  0  0  0  0  0  0  0  0
    5.3905   -0.3577    0.0000 H   0  0  0  0  0  0  0  0  0  0  0  0
    6.6550    1.8326    0.0000 H   0  0  0  0  0  0  0  0  0  0  0  0
    6.2565    1.1423    0.0000 H   0  0  0  0  0  0  0  0  0  0  0  0
    6.2131   -1.8326    0.0000 H   0  0  0  0  0  0  0  0  0  0  0  0
    6.6116   -1.1423    0.0000 H   0  0  0  0  0  0  0  0  0  0  0  0
    7.9451    1.1674    0.0000 H   0  0  0  0  0  0  0  0  0  0  0  0
    8.3437    1.8577    0.0000 H   0  0  0  0  0  0  0  0  0  0  0  0
    4.9230   -1.1674    0.0000 H   0  0  0  0  0  0  0  0  0  0  0  0
    4.5244   -1.8577    0.0000 H   0  0  0  0  0  0  0  0  0  0  0  0
    7.1962    3.0600    0.0000 H   0  0  0  0  0  0  0  0  0  0  0  0
    5.6720   -3.0600    0.0000 H   0  0  0  0  0  0  0  0  0  0  0  0
   10.0021    4.4400    0.0000 H   0  0  0  0  0  0  0  0  0  0  0  0
    5.6720   -4.4400    0.0000 H   0  0  0  0  0  0  0  0  0  0  0  0
    7.1962    6.0600    0.0000 H   0  0  0  0  0  0  0  0  0  0  0  0
    2.8660   -6.0600    0.0000 H   0  0  0  0  0  0  0  0  0  0  0  0
   10.0021    6.0600    0.0000 H   0  0  0  0  0  0  0  0  0  0  0  0
    5.6720   -6.0600    0.0000 H   0  0  0  0  0  0  0  0  0  0  0  0
    8.5991    6.8700    0.0000 H   0  0  0  0  0  0  0  0  0  0  0  0
    4.2690   -6.8700    0.0000 H   0  0  0  0  0  0  0  0  0  0  0  0
    6.3301    4.5600    0.0000 H   0  0  0  0  0  0  0  0  0  0  0  0
    6.8671    3.6300    0.0000 H   0  0  0  0  0  0  0  0  0  0  0  0
    2.0000   -4.5600    0.0000 H   0  0  0  0  0  0  0  0  0  0  0  0
    2.5369   -3.6300    0.0000 H   0  0  0  0  0  0  0  0  0  0  0  0
  1 13  2  0  0  0  0
  2 14  2  0  0  0  0
  3 11  1  0  0  0  0
  3 13  1  0  0  0  0
  3 39  1  0  0  0  0
  4 12  1  0  0  0  0
  4 14  1  0  0  0  0
  4 40  1  0  0  0  0
  5 17  1  0  0  0  0
  5 49  1  0  0  0  0
  5 50  1  0  0  0  0
  6 18  1  0  0  0  0
  6 51  1  0  0  0  0
  6 52  1  0  0  0  0
  7  8  1  0  0  0  0
  7  9  1  0  0  0  0
  7 27  1  0  0  0  0
  7 28  1  0  0  0  0
  8 10  1  0  0  0  0
  8 29  1  0  0  0  0
  8 30  1  0  0  0  0
  9 11  1  0  0  0  0
  9 31  1  0  0  0  0
  9 32  1  0  0  0  0
 10 12  1  0  0  0  0
 10 33  1  0  0  0  0
 10 34  1  0  0  0  0
 11 35  1  0  0  0  0
 11 36  1  0  0  0  0
 12 37  1  0  0  0  0
 12 38  1  0  0  0  0
 13 15  1  0  0  0  0
 14 16  1  0  0  0  0
 15 17  1  0  0  0  0
 15 19  2  0  0  0  0
 16 18  1  0  0  0  0
 16 20  2  0  0  0  0
 17 21  2  0  0  0  0
 18 22  2  0  0  0  0
 19 23  1  0  0  0  0
 19 41  1  0  0  0  0
 20 24  1  0  0  0  0
 20 42  1  0  0  0  0
 21 25  1  0  0  0  0
 21 43  1  0  0  0  0
 22 26  1  0  0  0  0
 22 44  1  0  0  0  0
 23 25  2  0  0  0  0
 23 45  1  0  0  0  0
 24 26  2  0  0  0  0
 24 46  1  0  0  0  0
 25 47  1  0  0  0  0
 26 48  1  0  0  0  0
M  END
> <PUBCHEM_COMPOUND_CID>
3091232

> <PUBCHEM_COMPOUND_CANONICALIZED>
1

> <PUBCHEM_CACTVS_COMPLEXITY>
404

> <PUBCHEM_CACTVS_HBOND_ACCEPTOR>
4

> <PUBCHEM_CACTVS_HBOND_DONOR>
4

> <PUBCHEM_CACTVS_ROTATABLE_BOND>
9

> <PUBCHEM_CACTVS_SUBSKEYS>
AAADceB7sAAAAAAAAAAAAAAAAAAAAAAAAAAwYAAAAAAAAAABQAAAHgAQAAAADAjBmAQwwILAAACIAiVSUACCAAAkAgAIiIEIZMgIIDqA1ZGEIYhglgCIyccYiACOAAAAAAACAAAAAAAAAAQAAAAAAAAAAA==

> <PUBCHEM_IUPAC_OPENEYE_NAME>
2-amino-N-[6-[(2-aminobenzoyl)amino]hexyl]benzamide

> <PUBCHEM_IUPAC_CAS_NAME>
2-amino-N-[6-[[(2-aminophenyl)-oxomethyl]amino]hexyl]benzamide

> <PUBCHEM_IUPAC_NAME_MARKUP>
2-amino-<I>N</I>-[6-[(2-aminobenzoyl)amino]hexyl]benzamide

> <PUBCHEM_IUPAC_NAME>
2-amino-N-[6-[(2-aminobenzoyl)amino]hexyl]benzamide

> <PUBCHEM_IUPAC_SYSTEMATIC_NAME>
N-[6-[(2-aminophenyl)carbonylamino]hexyl]-2-azanyl-benzamide

> <PUBCHEM_IUPAC_TRADITIONAL_NAME>
2-amino-N-[6-(anthraniloylamino)hexyl]benzamide

> <PUBCHEM_IUPAC_INCHI>
InChI=1S/C20H26N4O2/c21-17-11-5-3-9-15(17)19(25)23-13-7-1-2-8-14-24-20(26)16-10-4-6-12-18(16)22/h3-6,9-12H,1-2,7-8,13-14,21-22H2,(H,23,25)(H,24,26)

> <PUBCHEM_IUPAC_INCHIKEY>
YJEULLIOUKINGM-UHFFFAOYSA-N

> <PUBCHEM_XLOGP3_AA>
3.3

> <PUBCHEM_EXACT_MASS>
354.20557608

> <PUBCHEM_MOLECULAR_FORMULA>
C20H26N4O2

> <PUBCHEM_MOLECULAR_WEIGHT>
354.4

> <PUBCHEM_SMILES>
C1=CC=C(C(=C1)C(=O)NCCCCCCNC(=O)C2=CC=CC=C2N)N

> <PUBCHEM_OPENEYE_CAN_SMILES>
C1=CC=C(C(=C1)C(=O)NCCCCCCNC(=O)C2=CC=CC=C2N)N

> <PUBCHEM_OPENEYE_ISO_SMILES>
C1=CC=C(C(=C1)C(=O)NCCCCCCNC(=O)C2=CC=CC=C2N)N

> <PUBCHEM_CACTVS_TPSA>
110

> <PUBCHEM_MONOISOTOPIC_WEIGHT>
354.20557608

> <PUBCHEM_TOTAL_CHARGE>
0

> <PUBCHEM_HEAVY_ATOM_COUNT>
26

> <PUBCHEM_ATOM_DEF_STEREO_COUNT>
0

> <PUBCHEM_ATOM_UDEF_STEREO_COUNT>
0

> <PUBCHEM_BOND_DEF_STEREO_COUNT>
0

> <PUBCHEM_BOND_UDEF_STEREO_COUNT>
0

> <PUBCHEM_ISOTOPIC_ATOM_COUNT>
0

> <PUBCHEM_COMPONENT_COUNT>
1

> <PUBCHEM_CACTVS_TAUTO_COUNT>
-1

> <PUBCHEM_COORDINATE_TYPE>
1
5
255

> <PUBCHEM_BONDANNOTATIONS>
15  17  8
15  19  8
16  18  8
16  20  8
17  21  8
18  22  8
19  23  8
20  24  8
21  25  8
22  26  8
23  25  8
24  26  8

$$$$
