3301396
  -OEChem-04042512132D

 22 21  0     0  0  0  0  0  0999 V2000
    2.5369    0.1160    0.0000 O   0  0  0  0  0  0  0  0  0  0  0  0
    2.7690    0.9821    0.0000 O   0  0  0  0  0  0  0  0  0  0  0  0
    6.0010    0.1160    0.0000 O   0  0  0  0  0  0  0  0  0  0  0  0
    5.1350    1.6160    0.0000 O   0  0  0  0  0  0  0  0  0  0  0  0
    4.2690    0.1160    0.0000 C   0  0  0  0  0  0  0  0  0  0  0  0
    4.7690   -0.7500    0.0000 C   0  0  0  0  0  0  0  0  0  0  0  0
    3.4030   -0.3840    0.0000 C   0  0  0  0  0  0  0  0  0  0  0  0
    3.7690    0.9821    0.0000 C   0  0  0  0  0  0  0  0  0  0  0  0
    5.1350    0.6160    0.0000 C   0  0  0  0  0  0  0  0  0  0  0  0
    4.2690   -1.6160    0.0000 C   0  0  0  0  0  0  0  0  0  0  0  0
    5.2439   -1.1485    0.0000 H   0  0  0  0  0  0  0  0  0  0  0  0
    5.2439   -0.3515    0.0000 H   0  0  0  0  0  0  0  0  0  0  0  0
    3.0044   -0.8589    0.0000 H   0  0  0  0  0  0  0  0  0  0  0  0
    3.8015   -0.8589    0.0000 H   0  0  0  0  0  0  0  0  0  0  0  0
    4.3516    1.1941    0.0000 H   0  0  0  0  0  0  0  0  0  0  0  0
    3.6613    1.5926    0.0000 H   0  0  0  0  0  0  0  0  0  0  0  0
    3.7320   -1.3060    0.0000 H   0  0  0  0  0  0  0  0  0  0  0  0
    3.9590   -2.1530    0.0000 H   0  0  0  0  0  0  0  0  0  0  0  0
    4.8059   -1.9260    0.0000 H   0  0  0  0  0  0  0  0  0  0  0  0
    2.0000   -0.1940    0.0000 H   0  0  0  0  0  0  0  0  0  0  0  0
    2.4590    1.5190    0.0000 H   0  0  0  0  0  0  0  0  0  0  0  0
    6.5380    0.4260    0.0000 H   0  0  0  0  0  0  0  0  0  0  0  0
  1  7  1  0  0  0  0
  1 20  1  0  0  0  0
  2  8  1  0  0  0  0
  2 21  1  0  0  0  0
  3  9  1  0  0  0  0
  3 22  1  0  0  0  0
  4  9  2  0  0  0  0
  5  6  1  0  0  0  0
  5  7  1  0  0  0  0
  5  8  1  0  0  0  0
  5  9  1  0  0  0  0
  6 10  1  0  0  0  0
  6 11  1  0  0  0  0
  6 12  1  0  0  0  0
  7 13  1  0  0  0  0
  7 14  1  0  0  0  0
  8 15  1  0  0  0  0
  8 16  1  0  0  0  0
 10 17  1  0  0  0  0
 10 18  1  0  0  0  0
 10 19  1  0  0  0  0
M  END
> <PUBCHEM_COMPOUND_CID>
3301396

> <PUBCHEM_COMPOUND_CANONICALIZED>
1

> <PUBCHEM_CACTVS_COMPLEXITY>
117

> <PUBCHEM_CACTVS_HBOND_ACCEPTOR>
4

> <PUBCHEM_CACTVS_HBOND_DONOR>
3

> <PUBCHEM_CACTVS_ROTATABLE_BOND>
4

> <PUBCHEM_CACTVS_SUBSKEYS>
AAADccBgOAAAAAAAAAAAAAAAAAAAAAAAAAAAAAAAAAAAAAAAAAAAGgAACAAADgCggAICCAAAAgAIAACQCAAAAAAAAAAAAAEAAAAAEBQAAAAAQAAFIAAAAAAAAAAJAAAAAAAAAAAAAAAAAAAAAAAAAAAAAA==

> <PUBCHEM_IUPAC_OPENEYE_NAME>
2,2-bis(hydroxymethyl)butanoic acid

> <PUBCHEM_IUPAC_CAS_NAME>
2,2-bis(hydroxymethyl)butanoic acid

> <PUBCHEM_IUPAC_NAME_MARKUP>
2,2-bis(hydroxymethyl)butanoic acid

> <PUBCHEM_IUPAC_NAME>
2,2-bis(hydroxymethyl)butanoic acid

> <PUBCHEM_IUPAC_SYSTEMATIC_NAME>
2,2-bis(hydroxymethyl)butanoic acid

> <PUBCHEM_IUPAC_TRADITIONAL_NAME>
2,2-dimethylolbutyric acid

> <PUBCHEM_IUPAC_INCHI>
InChI=1S/C6H12O4/c1-2-6(3-7,4-8)5(9)10/h7-8H,2-4H2,1H3,(H,9,10)

> <PUBCHEM_IUPAC_INCHIKEY>
JVYDLYGCSIHCMR-UHFFFAOYSA-N

> <PUBCHEM_XLOGP3_AA>
-0.9

> <PUBCHEM_EXACT_MASS>
148.07355886

> <PUBCHEM_MOLECULAR_FORMULA>
C6H12O4

> <PUBCHEM_MOLECULAR_WEIGHT>
148.16

> <PUBCHEM_SMILES>
CCC(CO)(CO)C(=O)O

> <PUBCHEM_OPENEYE_CAN_SMILES>
CCC(CO)(CO)C(=O)O

> <PUBCHEM_OPENEYE_ISO_SMILES>
CCC(CO)(CO)C(=O)O

> <PUBCHEM_CACTVS_TPSA>
77.8

> <PUBCHEM_MONOISOTOPIC_WEIGHT>
148.07355886

> <PUBCHEM_TOTAL_CHARGE>
0

> <PUBCHEM_HEAVY_ATOM_COUNT>
10

> <PUBCHEM_ATOM_DEF_STEREO_COUNT>
0

> <PUBCHEM_ATOM_UDEF_STEREO_COUNT>
0

> <PUBCHEM_BOND_DEF_STEREO_COUNT>
0

> <PUBCHEM_BOND_UDEF_STEREO_COUNT>
0

> <PUBCHEM_ISOTOPIC_ATOM_COUNT>
0

> <PUBCHEM_COMPONENT_COUNT>
1

> <PUBCHEM_CACTVS_TAUTO_COUNT>
-1

> <PUBCHEM_COORDINATE_TYPE>
1
5
255

$$$$
