41478
  -OEChem-04042512322D

 47 44  0     0  0  0  0  0  0999 V2000
    0.8660    5.5380    0.0000 S   0  0  0  0  0  0  0  0  0  0  0  0
    6.0010    2.2690    0.0000 P   0  3  0  0  0  0  0  0  0  0  0  0
    6.0010    8.8070    0.0000 P   0  3  0  0  0  0  0  0  0  0  0  0
    7.7331    2.2690    0.0000 O   0  0  0  0  0  0  0  0  0  0  0  0
    4.2690    2.2690    0.0000 O   0  0  0  0  0  0  0  0  0  0  0  0
    6.0010    4.0010    0.0000 O   0  0  0  0  0  0  0  0  0  0  0  0
    6.0010    0.5369    0.0000 O   0  0  0  0  0  0  0  0  0  0  0  0
    7.7331    8.8070    0.0000 O   0  0  0  0  0  0  0  0  0  0  0  0
    4.2690    8.8070    0.0000 O   0  0  0  0  0  0  0  0  0  0  0  0
    6.0010   10.5390    0.0000 O   0  0  0  0  0  0  0  0  0  0  0  0
    6.0010    7.0749    0.0000 O   0  0  0  0  0  0  0  0  0  0  0  0
    0.0000    5.0380    0.0000 O   0  5  0  0  0  0  0  0  0  0  0  0
    0.3660    6.4040    0.0000 O   0  5  0  0  0  0  0  0  0  0  0  0
    1.7320    6.0380    0.0000 O   0  0  0  0  0  0  0  0  0  0  0  0
    1.3660    4.6720    0.0000 O   0  0  0  0  0  0  0  0  0  0  0  0
    6.8671    2.7690    0.0000 C   0  0  0  0  0  0  0  0  0  0  0  0
    5.1350    1.7690    0.0000 C   0  0  0  0  0  0  0  0  0  0  0  0
    5.5010    3.1350    0.0000 C   0  0  0  0  0  0  0  0  0  0  0  0
    6.5010    1.4030    0.0000 C   0  0  0  0  0  0  0  0  0  0  0  0
    6.8671    9.3070    0.0000 C   0  0  0  0  0  0  0  0  0  0  0  0
    5.1350    8.3070    0.0000 C   0  0  0  0  0  0  0  0  0  0  0  0
    5.5010    9.6730    0.0000 C   0  0  0  0  0  0  0  0  0  0  0  0
    6.5010    7.9409    0.0000 C   0  0  0  0  0  0  0  0  0  0  0  0
    7.2656    3.2439    0.0000 H   0  0  0  0  0  0  0  0  0  0  0  0
    6.4685    3.2439    0.0000 H   0  0  0  0  0  0  0  0  0  0  0  0
    4.7365    1.2940    0.0000 H   0  0  0  0  0  0  0  0  0  0  0  0
    5.5335    1.2940    0.0000 H   0  0  0  0  0  0  0  0  0  0  0  0
    5.0261    3.5335    0.0000 H   0  0  0  0  0  0  0  0  0  0  0  0
    5.0261    2.7365    0.0000 H   0  0  0  0  0  0  0  0  0  0  0  0
    6.9760    1.0044    0.0000 H   0  0  0  0  0  0  0  0  0  0  0  0
    6.9760    1.8015    0.0000 H   0  0  0  0  0  0  0  0  0  0  0  0
    7.2656    9.7819    0.0000 H   0  0  0  0  0  0  0  0  0  0  0  0
    6.4685    9.7819    0.0000 H   0  0  0  0  0  0  0  0  0  0  0  0
    4.7365    7.8320    0.0000 H   0  0  0  0  0  0  0  0  0  0  0  0
    5.5335    7.8320    0.0000 H   0  0  0  0  0  0  0  0  0  0  0  0
    5.0261   10.0715    0.0000 H   0  0  0  0  0  0  0  0  0  0  0  0
    5.0261    9.2745    0.0000 H   0  0  0  0  0  0  0  0  0  0  0  0
    6.9760    7.5424    0.0000 H   0  0  0  0  0  0  0  0  0  0  0  0
    6.9760    8.3395    0.0000 H   0  0  0  0  0  0  0  0  0  0  0  0
    8.2700    2.5790    0.0000 H   0  0  0  0  0  0  0  0  0  0  0  0
    3.7320    1.9590    0.0000 H   0  0  0  0  0  0  0  0  0  0  0  0
    5.6910    4.5380    0.0000 H   0  0  0  0  0  0  0  0  0  0  0  0
    6.3110    0.0000    0.0000 H   0  0  0  0  0  0  0  0  0  0  0  0
    8.2700    9.1170    0.0000 H   0  0  0  0  0  0  0  0  0  0  0  0
    3.7320    8.4970    0.0000 H   0  0  0  0  0  0  0  0  0  0  0  0
    5.6910   11.0759    0.0000 H   0  0  0  0  0  0  0  0  0  0  0  0
    6.3110    6.5380    0.0000 H   0  0  0  0  0  0  0  0  0  0  0  0
  1 12  1  0  0  0  0
  1 13  1  0  0  0  0
  1 14  2  0  0  0  0
  1 15  2  0  0  0  0
  2 16  1  0  0  0  0
  2 17  1  0  0  0  0
  2 18  1  0  0  0  0
  2 19  1  0  0  0  0
  3 20  1  0  0  0  0
  3 21  1  0  0  0  0
  3 22  1  0  0  0  0
  3 23  1  0  0  0  0
  4 16  1  0  0  0  0
  4 40  1  0  0  0  0
  5 17  1  0  0  0  0
  5 41  1  0  0  0  0
  6 18  1  0  0  0  0
  6 42  1  0  0  0  0
  7 19  1  0  0  0  0
  7 43  1  0  0  0  0
  8 20  1  0  0  0  0
  8 44  1  0  0  0  0
  9 21  1  0  0  0  0
  9 45  1  0  0  0  0
 10 22  1  0  0  0  0
 10 46  1  0  0  0  0
 11 23  1  0  0  0  0
 11 47  1  0  0  0  0
 16 24  1  0  0  0  0
 16 25  1  0  0  0  0
 17 26  1  0  0  0  0
 17 27  1  0  0  0  0
 18 28  1  0  0  0  0
 18 29  1  0  0  0  0
 19 30  1  0  0  0  0
 19 31  1  0  0  0  0
 20 32  1  0  0  0  0
 20 33  1  0  0  0  0
 21 34  1  0  0  0  0
 21 35  1  0  0  0  0
 22 36  1  0  0  0  0
 22 37  1  0  0  0  0
 23 38  1  0  0  0  0
 23 39  1  0  0  0  0
M  CHG  4   2   1   3   1  12  -1  13  -1
M  END
> <PUBCHEM_COMPOUND_CID>
41478

> <PUBCHEM_COMPOUND_CANONICALIZED>
1

> <PUBCHEM_CACTVS_COMPLEXITY>
118

> <PUBCHEM_CACTVS_HBOND_ACCEPTOR>
12

> <PUBCHEM_CACTVS_HBOND_DONOR>
8

> <PUBCHEM_CACTVS_ROTATABLE_BOND>
8

> <PUBCHEM_CACTVS_SUBSKEYS>
AAADceBwPANAAAAAAAAAAAAAAAAAAAAAAAAAAAAAAAAAAAAAAAAAEggACAAAAAAAAAIAAAAAAiAAAAAAADAAAAAAAAAAAAAAAAAAEAAAAAAAAAAAAAAAAAAAAAAAAAAAAAAAAAAAAAAAAAAAAAAAAAAAAA==

> <PUBCHEM_IUPAC_OPENEYE_NAME>
tetrakis(hydroxymethyl)phosphonium;sulfate

> <PUBCHEM_IUPAC_CAS_NAME>
tetrakis(hydroxymethyl)phosphonium;sulfate

> <PUBCHEM_IUPAC_NAME_MARKUP>
tetrakis(hydroxymethyl)phosphanium;sulfate

> <PUBCHEM_IUPAC_NAME>
tetrakis(hydroxymethyl)phosphanium;sulfate

> <PUBCHEM_IUPAC_SYSTEMATIC_NAME>
tetrakis(hydroxymethyl)phosphanium;sulfate

> <PUBCHEM_IUPAC_TRADITIONAL_NAME>
tetramethylolphosphonium;sulfate

> <PUBCHEM_IUPAC_INCHI>
InChI=1S/2C4H12O4P.H2O4S/c2*5-1-9(2-6,3-7)4-8;1-5(2,3)4/h2*5-8H,1-4H2;(H2,1,2,3,4)/q2*+1;/p-2

> <PUBCHEM_IUPAC_INCHIKEY>
YIEDHPBKGZGLIK-UHFFFAOYSA-L

> <PUBCHEM_EXACT_MASS>
406.04637137

> <PUBCHEM_MOLECULAR_FORMULA>
C8H24O12P2S

> <PUBCHEM_MOLECULAR_WEIGHT>
406.28

> <PUBCHEM_SMILES>
C(O)[P+](CO)(CO)CO.C(O)[P+](CO)(CO)CO.[O-]S(=O)(=O)[O-]

> <PUBCHEM_OPENEYE_CAN_SMILES>
C(O)[P+](CO)(CO)CO.C(O)[P+](CO)(CO)CO.[O-]S(=O)(=O)[O-]

> <PUBCHEM_OPENEYE_ISO_SMILES>
C(O)[P+](CO)(CO)CO.C(O)[P+](CO)(CO)CO.[O-]S(=O)(=O)[O-]

> <PUBCHEM_CACTVS_TPSA>
250

> <PUBCHEM_MONOISOTOPIC_WEIGHT>
406.04637137

> <PUBCHEM_TOTAL_CHARGE>
0

> <PUBCHEM_HEAVY_ATOM_COUNT>
23

> <PUBCHEM_ATOM_DEF_STEREO_COUNT>
0

> <PUBCHEM_ATOM_UDEF_STEREO_COUNT>
0

> <PUBCHEM_BOND_DEF_STEREO_COUNT>
0

> <PUBCHEM_BOND_UDEF_STEREO_COUNT>
0

> <PUBCHEM_ISOTOPIC_ATOM_COUNT>
0

> <PUBCHEM_COMPONENT_COUNT>
3

> <PUBCHEM_CACTVS_TAUTO_COUNT>
-1

> <PUBCHEM_COORDINATE_TYPE>
1
5
255

$$$$
