436077
  -OEChem-04042513072D

 11 10  0     0  0  0  0  0  0999 V2000
    3.4030    0.4050    0.0000 P   0  0  0  0  0  0  0  0  0  0  0  0
    5.1350    0.4050    0.0000 P   0  0  0  0  0  0  0  0  0  0  0  0
    4.2690    0.9050    0.0000 O   0  0  0  0  0  0  0  0  0  0  0  0
    2.5369    0.9050    0.0000 O   0  0  0  0  0  0  0  0  0  0  0  0
    3.4030   -0.5950    0.0000 O   0  0  0  0  0  0  0  0  0  0  0  0
    6.0010    0.9050    0.0000 O   0  0  0  0  0  0  0  0  0  0  0  0
    5.1350   -0.5950    0.0000 O   0  0  0  0  0  0  0  0  0  0  0  0
    2.0000    0.5950    0.0000 H   0  0  0  0  0  0  0  0  0  0  0  0
    2.8660   -0.9050    0.0000 H   0  0  0  0  0  0  0  0  0  0  0  0
    6.5380    0.5950    0.0000 H   0  0  0  0  0  0  0  0  0  0  0  0
    5.6720   -0.9050    0.0000 H   0  0  0  0  0  0  0  0  0  0  0  0
  1  3  1  0  0  0  0
  1  4  1  0  0  0  0
  1  5  1  0  0  0  0
  2  3  1  0  0  0  0
  2  6  1  0  0  0  0
  2  7  1  0  0  0  0
  4  8  1  0  0  0  0
  5  9  1  0  0  0  0
  6 10  1  0  0  0  0
  7 11  1  0  0  0  0
M  END
> <PUBCHEM_COMPOUND_CID>
436077

> <PUBCHEM_COMPOUND_CANONICALIZED>
1

> <PUBCHEM_CACTVS_COMPLEXITY>
35.3

> <PUBCHEM_CACTVS_HBOND_ACCEPTOR>
5

> <PUBCHEM_CACTVS_HBOND_DONOR>
4

> <PUBCHEM_CACTVS_ROTATABLE_BOND>
2

> <PUBCHEM_CACTVS_SUBSKEYS>
AAADcYAAOAMAAAAAAAAAAAAAAAAAAAAAAAAAAAAAAAAAAAAAAAAAAAAACCAAAAAAAAAAAAAAABAAAAAAAAAAAAAAAAAAAAAAAAAAAAAAAAAAAAAAAAAAAAAAAAAAAAAAAAAAAAAAAAAAAAAAAAAAAAAAAA==

> <PUBCHEM_IUPAC_OPENEYE_NAME>
dihydroxyphosphanyl dihydrogen phosphite

> <PUBCHEM_IUPAC_CAS_NAME>
dihydroxyphosphino dihydrogen phosphite

> <PUBCHEM_IUPAC_NAME_MARKUP>
dihydroxyphosphanyl dihydrogen phosphite

> <PUBCHEM_IUPAC_NAME>
dihydroxyphosphanyl dihydrogen phosphite

> <PUBCHEM_IUPAC_SYSTEMATIC_NAME>
bis(oxidanyl)phosphanyl dihydrogen phosphite

> <PUBCHEM_IUPAC_TRADITIONAL_NAME>
dihydroxyphosphino dihydrogen phosphite

> <PUBCHEM_IUPAC_INCHI>
InChI=1S/H4O5P2/c1-6(2)5-7(3)4/h1-4H

> <PUBCHEM_IUPAC_INCHIKEY>
ZJIPHXXDPROMEF-UHFFFAOYSA-N

> <PUBCHEM_XLOGP3_AA>
-2.1

> <PUBCHEM_EXACT_MASS>
145.95339722

> <PUBCHEM_MOLECULAR_FORMULA>
H4O5P2

> <PUBCHEM_MOLECULAR_WEIGHT>
145.98

> <PUBCHEM_SMILES>
OP(O)OP(O)O

> <PUBCHEM_OPENEYE_CAN_SMILES>
OP(O)OP(O)O

> <PUBCHEM_OPENEYE_ISO_SMILES>
OP(O)OP(O)O

> <PUBCHEM_CACTVS_TPSA>
90.2

> <PUBCHEM_MONOISOTOPIC_WEIGHT>
145.95339722

> <PUBCHEM_TOTAL_CHARGE>
0

> <PUBCHEM_HEAVY_ATOM_COUNT>
7

> <PUBCHEM_ATOM_DEF_STEREO_COUNT>
0

> <PUBCHEM_ATOM_UDEF_STEREO_COUNT>
0

> <PUBCHEM_BOND_DEF_STEREO_COUNT>
0

> <PUBCHEM_BOND_UDEF_STEREO_COUNT>
0

> <PUBCHEM_ISOTOPIC_ATOM_COUNT>
0

> <PUBCHEM_COMPONENT_COUNT>
1

> <PUBCHEM_CACTVS_TAUTO_COUNT>
-1

> <PUBCHEM_COORDINATE_TYPE>
1
5
255

$$$$
