44263835
  -OEChem-04042506002D

 88 90  0     1  0  0  0  0  0999 V2000
    9.7942    0.5000    0.0000 O   0  0  0  0  0  0  0  0  0  0  0  0
    7.1962    1.0000    0.0000 O   0  0  0  0  0  0  0  0  0  0  0  0
   10.6603   -1.0000    0.0000 O   0  0  0  0  0  0  0  0  0  0  0  0
    6.3301   -0.5000    0.0000 O   0  0  0  0  0  0  0  0  0  0  0  0
   12.3923    1.0000    0.0000 O   0  0  0  0  0  0  0  0  0  0  0  0
    7.1962   -1.0000    0.0000 O   0  0  0  0  0  0  0  0  0  0  0  0
    8.9282   -2.0000    0.0000 O   0  0  0  0  0  0  0  0  0  0  0  0
   12.3923   -2.0000    0.0000 O   0  0  0  0  0  0  0  0  0  0  0  0
    5.4641    2.0000    0.0000 O   0  0  0  0  0  0  0  0  0  0  0  0
    3.7320    1.0000    0.0000 O   0  0  0  0  0  0  0  0  0  0  0  0
    3.7320   -1.0000    0.0000 O   0  0  0  0  0  0  0  0  0  0  0  0
   14.1244   -1.0000    0.0000 O   0  0  0  0  0  0  0  0  0  0  0  0
    8.0622    2.5000    0.0000 O   0  0  0  0  0  0  0  0  0  0  0  0
   14.1244    1.0000    0.0000 O   0  0  0  0  0  0  0  0  0  0  0  0
   10.6603    2.0000    0.0000 O   0  0  0  0  0  0  0  0  0  0  0  0
    4.5981   -2.5000    0.0000 O   0  0  0  0  0  0  0  0  0  0  0  0
    6.3301   -2.5000    0.0000 O   0  5  0  0  0  0  0  0  0  0  0  0
    8.0622   -2.5000    0.0000 O   0  0  0  0  0  0  0  0  0  0  0  0
    9.7942   -3.5000    0.0000 O   0  5  0  0  0  0  0  0  0  0  0  0
   10.6603   -2.0000    0.0000 O   0  0  0  0  0  0  0  0  0  0  0  0
   13.2583   -3.5000    0.0000 O   0  5  0  0  0  0  0  0  0  0  0  0
   14.1244   -2.0000    0.0000 O   0  0  0  0  0  0  0  0  0  0  0  0
    3.7320    2.0000    0.0000 O   0  5  0  0  0  0  0  0  0  0  0  0
    4.5981    3.5000    0.0000 O   0  0  0  0  0  0  0  0  0  0  0  0
    2.0000    1.0000    0.0000 O   0  5  0  0  0  0  0  0  0  0  0  0
    2.8660   -0.5000    0.0000 O   0  0  0  0  0  0  0  0  0  0  0  0
    2.1045   -1.5924    0.0000 O   0  5  0  0  0  0  0  0  0  0  0  0
    3.4313   -2.7057    0.0000 O   0  0  0  0  0  0  0  0  0  0  0  0
   15.8564   -1.0000    0.0000 O   0  5  0  0  0  0  0  0  0  0  0  0
   14.9904    0.5000    0.0000 O   0  0  0  0  0  0  0  0  0  0  0  0
    7.1962    4.0000    0.0000 O   0  5  0  0  0  0  0  0  0  0  0  0
    8.9282    4.0000    0.0000 O   0  0  0  0  0  0  0  0  0  0  0  0
   14.9904    2.5000    0.0000 O   0  5  0  0  0  0  0  0  0  0  0  0
   13.2583    2.5000    0.0000 O   0  0  0  0  0  0  0  0  0  0  0  0
   11.5263    3.5000    0.0000 O   0  5  0  0  0  0  0  0  0  0  0  0
   12.3923    2.0000    0.0000 O   0  0  0  0  0  0  0  0  0  0  0  0
    3.7320   -4.0000    0.0000 O   0  5  0  0  0  0  0  0  0  0  0  0
    5.4641   -4.0000    0.0000 O   0  0  0  0  0  0  0  0  0  0  0  0
    7.1962   -2.0000    0.0000 N   0  3  0  0  0  0  0  0  0  0  0  0
    9.7942   -2.5000    0.0000 N   0  3  0  0  0  0  0  0  0  0  0  0
   13.2583   -2.5000    0.0000 N   0  3  0  0  0  0  0  0  0  0  0  0
    4.5981    2.5000    0.0000 N   0  3  0  0  0  0  0  0  0  0  0  0
    2.8660    0.5000    0.0000 N   0  3  0  0  0  0  0  0  0  0  0  0
    3.0893   -1.7661    0.0000 N   0  3  0  0  0  0  0  0  0  0  0  0
   14.9904   -0.5000    0.0000 N   0  3  0  0  0  0  0  0  0  0  0  0
    8.0622    3.5000    0.0000 N   0  3  0  0  0  0  0  0  0  0  0  0
   14.1244    2.0000    0.0000 N   0  3  0  0  0  0  0  0  0  0  0  0
   11.5263    2.5000    0.0000 N   0  3  0  0  0  0  0  0  0  0  0  0
    4.5981   -3.5000    0.0000 N   0  3  0  0  0  0  0  0  0  0  0  0
    8.0622    0.5000    0.0000 C   0  0  1  0  0  0  0  0  0  0  0  0
    8.0622   -0.5000    0.0000 C   0  0  1  0  0  0  0  0  0  0  0  0
    8.9282   -1.0000    0.0000 C   0  0  2  0  0  0  0  0  0  0  0  0
    8.9282    1.0000    0.0000 C   0  0  1  0  0  0  0  0  0  0  0  0
    9.7942   -0.5000    0.0000 C   0  0  1  0  0  0  0  0  0  0  0  0
   11.5263   -0.5000    0.0000 C   0  0  1  0  0  0  0  0  0  0  0  0
    6.3301    0.5000    0.0000 C   0  0  2  0  0  0  0  0  0  0  0  0
   12.3923   -1.0000    0.0000 C   0  0  1  0  0  0  0  0  0  0  0  0
    5.4641    1.0000    0.0000 C   0  0  1  0  0  0  0  0  0  0  0  0
   11.5263    0.5000    0.0000 C   0  0  1  0  0  0  0  0  0  0  0  0
    4.5981    0.5000    0.0000 C   0  0  2  0  0  0  0  0  0  0  0  0
    4.5981   -0.5000    0.0000 C   0  0  1  0  0  0  0  0  0  0  0  0
   13.2583   -0.5000    0.0000 C   0  0  2  0  0  0  0  0  0  0  0  0
    5.4641   -1.0000    0.0000 C   0  0  1  0  0  0  0  0  0  0  0  0
    8.9282    2.0000    0.0000 C   0  0  0  0  0  0  0  0  0  0  0  0
   13.2583    0.5000    0.0000 C   0  0  1  0  0  0  0  0  0  0  0  0
   10.6603    1.0000    0.0000 C   0  0  0  0  0  0  0  0  0  0  0  0
    5.4641   -2.0000    0.0000 C   0  0  0  0  0  0  0  0  0  0  0  0
    8.0622    1.1200    0.0000 H   0  0  0  0  0  0  0  0  0  0  0  0
    7.5252   -0.1900    0.0000 H   0  0  0  0  0  0  0  0  0  0  0  0
    8.3913   -1.3100    0.0000 H   0  0  0  0  0  0  0  0  0  0  0  0
    9.4651    1.3100    0.0000 H   0  0  0  0  0  0  0  0  0  0  0  0
    9.7942   -1.1200    0.0000 H   0  0  0  0  0  0  0  0  0  0  0  0
   10.9893   -0.1900    0.0000 H   0  0  0  0  0  0  0  0  0  0  0  0
    6.3301    1.1200    0.0000 H   0  0  0  0  0  0  0  0  0  0  0  0
   11.8554   -1.3100    0.0000 H   0  0  0  0  0  0  0  0  0  0  0  0
    4.9272    1.3100    0.0000 H   0  0  0  0  0  0  0  0  0  0  0  0
   11.5263    1.1200    0.0000 H   0  0  0  0  0  0  0  0  0  0  0  0
    4.5981    1.1200    0.0000 H   0  0  0  0  0  0  0  0  0  0  0  0
    4.5981   -1.1200    0.0000 H   0  0  0  0  0  0  0  0  0  0  0  0
   13.2583   -1.1200    0.0000 H   0  0  0  0  0  0  0  0  0  0  0  0
    6.0010   -1.3100    0.0000 H   0  0  0  0  0  0  0  0  0  0  0  0
    9.5388    1.8923    0.0000 H   0  0  0  0  0  0  0  0  0  0  0  0
    9.1403    2.5826    0.0000 H   0  0  0  0  0  0  0  0  0  0  0  0
   13.7953    0.1900    0.0000 H   0  0  0  0  0  0  0  0  0  0  0  0
   10.0497    1.1077    0.0000 H   0  0  0  0  0  0  0  0  0  0  0  0
   10.4482    0.4174    0.0000 H   0  0  0  0  0  0  0  0  0  0  0  0
    5.6762   -2.5826    0.0000 H   0  0  0  0  0  0  0  0  0  0  0  0
    6.0747   -1.8923    0.0000 H   0  0  0  0  0  0  0  0  0  0  0  0
  1 53  1  0  0  0  0
  1 54  1  0  0  0  0
 50  2  1  6  0  0  0
 56  2  1  6  0  0  0
 54  3  1  1  0  0  0
 55  3  1  6  0  0  0
  4 56  1  0  0  0  0
  4 63  1  0  0  0  0
  5 59  1  0  0  0  0
  5 65  1  0  0  0  0
  6 39  1  0  0  0  0
 51  6  1  1  0  0  0
  7 40  1  0  0  0  0
 52  7  1  6  0  0  0
  8 41  1  0  0  0  0
 57  8  1  1  0  0  0
  9 42  1  0  0  0  0
 58  9  1  1  0  0  0
 10 43  1  0  0  0  0
 60 10  1  6  0  0  0
 11 44  1  0  0  0  0
 61 11  1  1  0  0  0
 12 45  1  0  0  0  0
 62 12  1  6  0  0  0
 13 46  1  0  0  0  0
 13 64  1  0  0  0  0
 14 47  1  0  0  0  0
 65 14  1  1  0  0  0
 15 48  1  0  0  0  0
 15 66  1  0  0  0  0
 16 49  1  0  0  0  0
 16 67  1  0  0  0  0
 17 39  1  0  0  0  0
 18 39  2  0  0  0  0
 19 40  1  0  0  0  0
 20 40  2  0  0  0  0
 21 41  1  0  0  0  0
 22 41  2  0  0  0  0
 23 42  1  0  0  0  0
 24 42  2  0  0  0  0
 25 43  1  0  0  0  0
 26 43  2  0  0  0  0
 27 44  1  0  0  0  0
 28 44  2  0  0  0  0
 29 45  1  0  0  0  0
 30 45  2  0  0  0  0
 31 46  1  0  0  0  0
 32 46  2  0  0  0  0
 33 47  1  0  0  0  0
 34 47  2  0  0  0  0
 35 48  1  0  0  0  0
 36 48  2  0  0  0  0
 37 49  1  0  0  0  0
 38 49  2  0  0  0  0
 50 51  1  0  0  0  0
 50 53  1  0  0  0  0
 50 68  1  0  0  0  0
 51 52  1  0  0  0  0
 51 69  1  0  0  0  0
 52 54  1  0  0  0  0
 52 70  1  0  0  0  0
 53 64  1  1  0  0  0
 53 71  1  0  0  0  0
 54 72  1  0  0  0  0
 55 57  1  0  0  0  0
 55 59  1  0  0  0  0
 55 73  1  0  0  0  0
 56 58  1  0  0  0  0
 56 74  1  0  0  0  0
 57 62  1  0  0  0  0
 57 75  1  0  0  0  0
 58 60  1  0  0  0  0
 58 76  1  0  0  0  0
 59 66  1  1  0  0  0
 59 77  1  0  0  0  0
 60 61  1  0  0  0  0
 60 78  1  0  0  0  0
 61 63  1  0  0  0  0
 61 79  1  0  0  0  0
 62 65  1  0  0  0  0
 62 80  1  0  0  0  0
 63 67  1  6  0  0  0
 63 81  1  0  0  0  0
 64 82  1  0  0  0  0
 64 83  1  0  0  0  0
 65 84  1  0  0  0  0
 66 85  1  0  0  0  0
 66 86  1  0  0  0  0
 67 87  1  0  0  0  0
 67 88  1  0  0  0  0
M  CHG  8  17  -1  19  -1  21  -1  23  -1  25  -1  27  -1  29  -1  31  -1
M  CHG  8  33  -1  35  -1  37  -1  39   1  40   1  41   1  42   1  43   1
M  CHG  6  44   1  45   1  46   1  47   1  48   1  49   1
M  END
> <PUBCHEM_COMPOUND_CID>
44263835

> <PUBCHEM_COMPOUND_CANONICALIZED>
1

> <PUBCHEM_CACTVS_COMPLEXITY>
1820

> <PUBCHEM_CACTVS_HBOND_ACCEPTOR>
38

> <PUBCHEM_CACTVS_HBOND_DONOR>
0

> <PUBCHEM_CACTVS_ROTATABLE_BOND>
18

> <PUBCHEM_CACTVS_SUBSKEYS>
AAADceB7/gAAAAAAAAAAAAAAAAAAAAAAAAAkSJAAAAAAAAAAAAAAGgAEAAAACBSwgAMACAAARAABAAAAAQAAAAAAAAAAAAAAAAARAAIAAAAiAAAFAAAGAAHAYAwAAAAAAAAAAAAAAAAAAAAAAAAAAAAAAA==

> <PUBCHEM_IUPAC_OPENEYE_NAME>
[(2S,3R,4S,5R,6R)-2-[(2R,3R,4S,5R,6S)-4,5-dinitrooxy-2-(nitrooxymethyl)-6-[(2R,3R,4S,5R,6S)-4,5,6-trinitrooxy-2-(nitrooxymethyl)tetrahydropyran-3-yl]oxy-tetrahydropyran-3-yl]oxy-3,5-dinitrooxy-6-(nitrooxymethyl)tetrahydropyran-4-yl] nitrate

> <PUBCHEM_IUPAC_CAS_NAME>
nitric acid [(2S,3R,4S,5R,6R)-2-[[(2R,3R,4S,5R,6S)-4,5-dinitrooxy-2-(nitrooxymethyl)-6-[[(2R,3R,4S,5R,6S)-4,5,6-trinitrooxy-2-(nitrooxymethyl)-3-oxanyl]oxy]-3-oxanyl]oxy]-3,5-dinitrooxy-6-(nitrooxymethyl)-4-oxanyl] ester

> <PUBCHEM_IUPAC_NAME_MARKUP>
[(2<I>S</I>,3<I>R</I>,4<I>S</I>,5<I>R</I>,6<I>R</I>)-2-[(2<I>R</I>,3<I>R</I>,4<I>S</I>,5<I>R</I>,6<I>S</I>)-4,5-dinitrooxy-2-(nitrooxymethyl)-6-[(2<I>R</I>,3<I>R</I>,4<I>S</I>,5<I>R</I>,6<I>S</I>)-4,5,6-trinitrooxy-2-(nitrooxymethyl)oxan-3-yl]oxyoxan-3-yl]oxy-3,5-dinitrooxy-6-(nitrooxymethyl)oxan-4-yl] nitrate

> <PUBCHEM_IUPAC_NAME>
[(2S,3R,4S,5R,6R)-2-[(2R,3R,4S,5R,6S)-4,5-dinitrooxy-2-(nitrooxymethyl)-6-[(2R,3R,4S,5R,6S)-4,5,6-trinitrooxy-2-(nitrooxymethyl)oxan-3-yl]oxyoxan-3-yl]oxy-3,5-dinitrooxy-6-(nitrooxymethyl)oxan-4-yl] nitrate

> <PUBCHEM_IUPAC_SYSTEMATIC_NAME>
[(2S,3R,4S,5R,6R)-2-[(2R,3R,4S,5R,6S)-4,5-dinitrooxy-2-(nitrooxymethyl)-6-[(2R,3R,4S,5R,6S)-4,5,6-trinitrooxy-2-(nitrooxymethyl)oxan-3-yl]oxy-oxan-3-yl]oxy-3,5-dinitrooxy-6-(nitrooxymethyl)oxan-4-yl] nitrate

> <PUBCHEM_IUPAC_TRADITIONAL_NAME>
nitric acid [(2S,3R,4S,5R,6R)-2-[(2R,3R,4S,5R,6S)-4,5-dinitrooxy-2-(nitrooxymethyl)-6-[(2R,3R,4S,5R,6S)-4,5,6-trinitrooxy-2-(nitrooxymethyl)tetrahydropyran-3-yl]oxy-tetrahydropyran-3-yl]oxy-3,5-dinitrooxy-6-(nitrooxymethyl)tetrahydropyran-4-yl] ester

> <PUBCHEM_IUPAC_INCHI>
InChI=1S/C18H21N11O38/c30-19(31)52-1-4-7(58-17-14(65-27(46)47)12(63-25(42)43)9(60-22(36)37)6(56-17)3-54-21(34)35)10(61-23(38)39)13(64-26(44)45)16(55-4)59-8-5(2-53-20(32)33)57-18(67-29(50)51)15(66-28(48)49)11(8)62-24(40)41/h4-18H,1-3H2/t4-,5-,6-,7-,8-,9-,10+,11+,12+,13-,14-,15-,16+,17+,18+/m1/s1

> <PUBCHEM_IUPAC_INCHIKEY>
FJWGYAHXMCUOOM-QHOUIDNNSA-N

> <PUBCHEM_XLOGP3_AA>
3.1

> <PUBCHEM_EXACT_MASS>
999.0048952

> <PUBCHEM_MOLECULAR_FORMULA>
C18H21N11O38

> <PUBCHEM_MOLECULAR_WEIGHT>
999.4

> <PUBCHEM_SMILES>
C([C@@H]1[C@H]([C@@H]([C@H]([C@@H](O1)O[C@@H]2[C@H](O[C@H]([C@@H]([C@H]2O[N+](=O)[O-])O[N+](=O)[O-])O[N+](=O)[O-])CO[N+](=O)[O-])O[N+](=O)[O-])O[N+](=O)[O-])O[C@H]3[C@@H]([C@H]([C@@H]([C@H](O3)CO[N+](=O)[O-])O[N+](=O)[O-])O[N+](=O)[O-])O[N+](=O)[O-])O[N+](=O)[O-]

> <PUBCHEM_OPENEYE_CAN_SMILES>
C(C1C(C(C(C(O1)OC2C(OC(C(C2O[N+](=O)[O-])O[N+](=O)[O-])O[N+](=O)[O-])CO[N+](=O)[O-])O[N+](=O)[O-])O[N+](=O)[O-])OC3C(C(C(C(O3)CO[N+](=O)[O-])O[N+](=O)[O-])O[N+](=O)[O-])O[N+](=O)[O-])O[N+](=O)[O-]

> <PUBCHEM_OPENEYE_ISO_SMILES>
C([C@@H]1[C@H]([C@@H]([C@H]([C@@H](O1)O[C@@H]2[C@H](O[C@H]([C@@H]([C@H]2O[N+](=O)[O-])O[N+](=O)[O-])O[N+](=O)[O-])CO[N+](=O)[O-])O[N+](=O)[O-])O[N+](=O)[O-])O[C@H]3[C@@H]([C@H]([C@@H]([C@H](O3)CO[N+](=O)[O-])O[N+](=O)[O-])O[N+](=O)[O-])O[N+](=O)[O-])O[N+](=O)[O-]

> <PUBCHEM_CACTVS_TPSA>
652

> <PUBCHEM_MONOISOTOPIC_WEIGHT>
999.0048952

> <PUBCHEM_TOTAL_CHARGE>
0

> <PUBCHEM_HEAVY_ATOM_COUNT>
67

> <PUBCHEM_ATOM_DEF_STEREO_COUNT>
15

> <PUBCHEM_ATOM_UDEF_STEREO_COUNT>
0

> <PUBCHEM_BOND_DEF_STEREO_COUNT>
0

> <PUBCHEM_BOND_UDEF_STEREO_COUNT>
0

> <PUBCHEM_ISOTOPIC_ATOM_COUNT>
0

> <PUBCHEM_COMPONENT_COUNT>
1

> <PUBCHEM_CACTVS_TAUTO_COUNT>
-1

> <PUBCHEM_COORDINATE_TYPE>
1
5
255

> <PUBCHEM_BONDANNOTATIONS>
60  10  6
61  11  5
62  12  6
65  14  5
50  2  6
56  2  6
54  3  5
55  3  6
53  64  5
59  66  5
51  6  5
63  67  6
52  7  6
57  8  5
58  9  5

$$$$
