44624730
  -OEChem-04042512272D

 13 10  0     1  0  0  0  0  0999 V2000
    3.7320   -0.4050    0.0000 S   0  0  0  0  0  0  0  0  0  0  0  0
    2.0000   -0.4050    0.0000 Na  0  3  0  0  0  0  0  0  0  0  0  0
    7.1962   -0.4050    0.0000 Na  0  3  0  0  0  0  0  0  0  0  0  0
    4.5981    1.0950    0.0000 O   0  0  0  0  0  0  0  0  0  0  0  0
    2.8660   -0.9050    0.0000 O   0  5  0  0  0  0  0  0  0  0  0  0
    3.2320    0.4610    0.0000 O   0  0  0  0  0  0  0  0  0  0  0  0
    4.2320   -1.2710    0.0000 O   0  0  0  0  0  0  0  0  0  0  0  0
    6.3301    0.0950    0.0000 O   0  5  0  0  0  0  0  0  0  0  0  0
    5.4641   -1.4050    0.0000 O   0  0  0  0  0  0  0  0  0  0  0  0
    4.5981    0.0950    0.0000 C   0  0  3  0  0  0  0  0  0  0  0  0
    5.4641   -0.4050    0.0000 C   0  0  0  0  0  0  0  0  0  0  0  0
    5.1350    0.4050    0.0000 H   0  0  0  0  0  0  0  0  0  0  0  0
    5.1350    1.4050    0.0000 H   0  0  0  0  0  0  0  0  0  0  0  0
  1  5  1  0  0  0  0
  1  6  2  0  0  0  0
  1  7  2  0  0  0  0
  1 10  1  0  0  0  0
  4 10  1  0  0  0  0
  4 13  1  0  0  0  0
  8 11  1  0  0  0  0
  9 11  2  0  0  0  0
 10 11  1  0  0  0  0
 10 12  1  0  0  0  0
M  CHG  4   2   1   3   1   5  -1   8  -1
M  END
> <PUBCHEM_COMPOUND_CID>
44624730

> <PUBCHEM_COMPOUND_CANONICALIZED>
1

> <PUBCHEM_CACTVS_COMPLEXITY>
177

> <PUBCHEM_CACTVS_HBOND_ACCEPTOR>
6

> <PUBCHEM_CACTVS_HBOND_DONOR>
1

> <PUBCHEM_CACTVS_ROTATABLE_BOND>
0

> <PUBCHEM_CACTVS_SUBSKEYS>
AAADcQBAODBAAAAAAAAAAAAAAAAAAAAAAAAAAAAAAAAAAAAAAAAAGgQACAAAAACkwAKACAAAAgIIAACQCHJAAAAAAAAAAABAAAABEAAAAAAAAAAAAAABAAAAAAAAAAAAAAAAAAAAAAAAAAAAAAAAAAAAAA==

> <PUBCHEM_IUPAC_OPENEYE_NAME>
disodium;2-hydroxy-2-sulfonato-acetate

> <PUBCHEM_IUPAC_CAS_NAME>
disodium;2-hydroxy-2-sulfonatoacetate

> <PUBCHEM_IUPAC_NAME_MARKUP>
disodium;2-hydroxy-2-sulfonatoacetate

> <PUBCHEM_IUPAC_NAME>
disodium;2-hydroxy-2-sulfonatoacetate

> <PUBCHEM_IUPAC_SYSTEMATIC_NAME>
disodium;2-oxidanyl-2-sulfonato-ethanoate

> <PUBCHEM_IUPAC_TRADITIONAL_NAME>
disodium;2-hydroxy-2-sulfonato-acetate

> <PUBCHEM_IUPAC_INCHI>
InChI=1S/C2H4O6S.2Na/c3-1(4)2(5)9(6,7)8;;/h2,5H,(H,3,4)(H,6,7,8);;/q;2*+1/p-2

> <PUBCHEM_IUPAC_INCHIKEY>
AJXNWWLXMKDNHF-UHFFFAOYSA-L

> <PUBCHEM_EXACT_MASS>
199.93674752

> <PUBCHEM_MOLECULAR_FORMULA>
C2H2Na2O6S

> <PUBCHEM_MOLECULAR_WEIGHT>
200.08

> <PUBCHEM_SMILES>
C(C(=O)[O-])(O)S(=O)(=O)[O-].[Na+].[Na+]

> <PUBCHEM_OPENEYE_CAN_SMILES>
C(C(=O)[O-])(O)S(=O)(=O)[O-].[Na+].[Na+]

> <PUBCHEM_OPENEYE_ISO_SMILES>
C(C(=O)[O-])(O)S(=O)(=O)[O-].[Na+].[Na+]

> <PUBCHEM_CACTVS_TPSA>
126

> <PUBCHEM_MONOISOTOPIC_WEIGHT>
199.93674752

> <PUBCHEM_TOTAL_CHARGE>
0

> <PUBCHEM_HEAVY_ATOM_COUNT>
11

> <PUBCHEM_ATOM_DEF_STEREO_COUNT>
0

> <PUBCHEM_ATOM_UDEF_STEREO_COUNT>
1

> <PUBCHEM_BOND_DEF_STEREO_COUNT>
0

> <PUBCHEM_BOND_UDEF_STEREO_COUNT>
0

> <PUBCHEM_ISOTOPIC_ATOM_COUNT>
0

> <PUBCHEM_COMPONENT_COUNT>
3

> <PUBCHEM_CACTVS_TAUTO_COUNT>
-1

> <PUBCHEM_COORDINATE_TYPE>
1
5
255

> <PUBCHEM_BONDANNOTATIONS>
10  4  3

$$$$
