4992761
  -OEChem-04042505422D

 59 62  0     0  0  0  0  0  0999 V2000
    7.1962    2.9400    0.0000 O   0  0  0  0  0  0  0  0  0  0  0  0
   10.6603    2.9400    0.0000 O   0  0  0  0  0  0  0  0  0  0  0  0
   11.5263    1.4400    0.0000 N   0  0  0  0  0  0  0  0  0  0  0  0
   10.6603   -0.0600    0.0000 N   0  0  0  0  0  0  0  0  0  0  0  0
   12.3923   -0.0600    0.0000 N   0  0  0  0  0  0  0  0  0  0  0  0
    4.5981    2.4400    0.0000 C   0  0  0  0  0  0  0  0  0  0  0  0
    3.7320    2.9400    0.0000 C   0  0  0  0  0  0  0  0  0  0  0  0
    5.4641    2.9400    0.0000 C   0  0  0  0  0  0  0  0  0  0  0  0
    2.8660    2.4400    0.0000 C   0  0  0  0  0  0  0  0  0  0  0  0
    6.3301    2.4400    0.0000 C   0  0  0  0  0  0  0  0  0  0  0  0
    2.0000    2.9400    0.0000 C   0  0  0  0  0  0  0  0  0  0  0  0
    8.0622    2.4400    0.0000 C   0  0  0  0  0  0  0  0  0  0  0  0
    9.7942    1.4400    0.0000 C   0  0  0  0  0  0  0  0  0  0  0  0
    8.9282    2.9400    0.0000 C   0  0  0  0  0  0  0  0  0  0  0  0
    8.0622    1.4400    0.0000 C   0  0  0  0  0  0  0  0  0  0  0  0
    9.7942    2.4400    0.0000 C   0  0  0  0  0  0  0  0  0  0  0  0
    8.9282    0.9400    0.0000 C   0  0  0  0  0  0  0  0  0  0  0  0
   10.6603    0.9400    0.0000 C   0  0  0  0  0  0  0  0  0  0  0  0
   12.3923    0.9400    0.0000 C   0  0  0  0  0  0  0  0  0  0  0  0
   11.5263   -0.5600    0.0000 C   0  0  0  0  0  0  0  0  0  0  0  0
   13.2583    1.4400    0.0000 C   0  0  0  0  0  0  0  0  0  0  0  0
   11.5263   -1.5600    0.0000 C   0  0  0  0  0  0  0  0  0  0  0  0
   14.1244    0.9400    0.0000 C   0  0  0  0  0  0  0  0  0  0  0  0
   13.2583    2.4400    0.0000 C   0  0  0  0  0  0  0  0  0  0  0  0
   10.6603   -2.0600    0.0000 C   0  0  0  0  0  0  0  0  0  0  0  0
   12.3923   -2.0600    0.0000 C   0  0  0  0  0  0  0  0  0  0  0  0
   14.9904    1.4400    0.0000 C   0  0  0  0  0  0  0  0  0  0  0  0
   14.1244    2.9400    0.0000 C   0  0  0  0  0  0  0  0  0  0  0  0
   10.6603   -3.0600    0.0000 C   0  0  0  0  0  0  0  0  0  0  0  0
   12.3923   -3.0600    0.0000 C   0  0  0  0  0  0  0  0  0  0  0  0
   14.9904    2.4400    0.0000 C   0  0  0  0  0  0  0  0  0  0  0  0
   11.5263   -3.5600    0.0000 C   0  0  0  0  0  0  0  0  0  0  0  0
    4.1996    1.9650    0.0000 H   0  0  0  0  0  0  0  0  0  0  0  0
    4.9966    1.9650    0.0000 H   0  0  0  0  0  0  0  0  0  0  0  0
    4.1306    3.4150    0.0000 H   0  0  0  0  0  0  0  0  0  0  0  0
    3.3335    3.4150    0.0000 H   0  0  0  0  0  0  0  0  0  0  0  0
    5.8626    3.4150    0.0000 H   0  0  0  0  0  0  0  0  0  0  0  0
    5.0656    3.4150    0.0000 H   0  0  0  0  0  0  0  0  0  0  0  0
    2.4675    1.9650    0.0000 H   0  0  0  0  0  0  0  0  0  0  0  0
    3.2646    1.9650    0.0000 H   0  0  0  0  0  0  0  0  0  0  0  0
    5.9316    1.9650    0.0000 H   0  0  0  0  0  0  0  0  0  0  0  0
    6.7287    1.9650    0.0000 H   0  0  0  0  0  0  0  0  0  0  0  0
    2.3100    3.4769    0.0000 H   0  0  0  0  0  0  0  0  0  0  0  0
    1.4631    3.2500    0.0000 H   0  0  0  0  0  0  0  0  0  0  0  0
    1.6900    2.4031    0.0000 H   0  0  0  0  0  0  0  0  0  0  0  0
    8.9282    3.5600    0.0000 H   0  0  0  0  0  0  0  0  0  0  0  0
    7.5252    1.1300    0.0000 H   0  0  0  0  0  0  0  0  0  0  0  0
    8.9282    0.3200    0.0000 H   0  0  0  0  0  0  0  0  0  0  0  0
   14.1244    0.3200    0.0000 H   0  0  0  0  0  0  0  0  0  0  0  0
   12.7214    2.7500    0.0000 H   0  0  0  0  0  0  0  0  0  0  0  0
   10.1233   -1.7500    0.0000 H   0  0  0  0  0  0  0  0  0  0  0  0
   12.9292   -1.7500    0.0000 H   0  0  0  0  0  0  0  0  0  0  0  0
   10.6603    3.5600    0.0000 H   0  0  0  0  0  0  0  0  0  0  0  0
   15.5273    1.1300    0.0000 H   0  0  0  0  0  0  0  0  0  0  0  0
   14.1244    3.5600    0.0000 H   0  0  0  0  0  0  0  0  0  0  0  0
   10.1233   -3.3700    0.0000 H   0  0  0  0  0  0  0  0  0  0  0  0
   12.9292   -3.3700    0.0000 H   0  0  0  0  0  0  0  0  0  0  0  0
   15.5273    2.7500    0.0000 H   0  0  0  0  0  0  0  0  0  0  0  0
   11.5263   -4.1800    0.0000 H   0  0  0  0  0  0  0  0  0  0  0  0
  1 10  1  0  0  0  0
  1 12  1  0  0  0  0
  2 16  1  0  0  0  0
  2 53  1  0  0  0  0
  3 18  2  0  0  0  0
  3 19  1  0  0  0  0
  4 18  1  0  0  0  0
  4 20  2  0  0  0  0
  5 19  2  0  0  0  0
  5 20  1  0  0  0  0
  6  7  1  0  0  0  0
  6  8  1  0  0  0  0
  6 33  1  0  0  0  0
  6 34  1  0  0  0  0
  7  9  1  0  0  0  0
  7 35  1  0  0  0  0
  7 36  1  0  0  0  0
  8 10  1  0  0  0  0
  8 37  1  0  0  0  0
  8 38  1  0  0  0  0
  9 11  1  0  0  0  0
  9 39  1  0  0  0  0
  9 40  1  0  0  0  0
 10 41  1  0  0  0  0
 10 42  1  0  0  0  0
 11 43  1  0  0  0  0
 11 44  1  0  0  0  0
 11 45  1  0  0  0  0
 12 14  2  0  0  0  0
 12 15  1  0  0  0  0
 13 16  2  0  0  0  0
 13 17  1  0  0  0  0
 13 18  1  0  0  0  0
 14 16  1  0  0  0  0
 14 46  1  0  0  0  0
 15 17  2  0  0  0  0
 15 47  1  0  0  0  0
 17 48  1  0  0  0  0
 19 21  1  0  0  0  0
 20 22  1  0  0  0  0
 21 23  2  0  0  0  0
 21 24  1  0  0  0  0
 22 25  2  0  0  0  0
 22 26  1  0  0  0  0
 23 27  1  0  0  0  0
 23 49  1  0  0  0  0
 24 28  2  0  0  0  0
 24 50  1  0  0  0  0
 25 29  1  0  0  0  0
 25 51  1  0  0  0  0
 26 30  2  0  0  0  0
 26 52  1  0  0  0  0
 27 31  2  0  0  0  0
 27 54  1  0  0  0  0
 28 31  1  0  0  0  0
 28 55  1  0  0  0  0
 29 32  2  0  0  0  0
 29 56  1  0  0  0  0
 30 32  1  0  0  0  0
 30 57  1  0  0  0  0
 31 58  1  0  0  0  0
 32 59  1  0  0  0  0
M  END
> <PUBCHEM_COMPOUND_CID>
4992761

> <PUBCHEM_COMPOUND_CANONICALIZED>
1

> <PUBCHEM_CACTVS_COMPLEXITY>
495

> <PUBCHEM_CACTVS_HBOND_ACCEPTOR>
5

> <PUBCHEM_CACTVS_HBOND_DONOR>
1

> <PUBCHEM_CACTVS_ROTATABLE_BOND>
9

> <PUBCHEM_CACTVS_SUBSKEYS>
AAADceB7MAAAAAAAAAAAAAAAAAAAAAAAAAA8YMEAAAAAAAAB1AAAHgAACAAADAShmwIzFoYIFgCgAiJiJACCiAkgIKAJiCAmDJiML6KGuRuGeCjvwBeIuAeQ8C4OIAAACAAIAABAAAAQABAAAAAAAAAAAA==

> <PUBCHEM_IUPAC_OPENEYE_NAME>
2-(4,6-diphenyl-1,3,5-triazin-2-yl)-5-hexoxy-phenol

> <PUBCHEM_IUPAC_CAS_NAME>
2-(4,6-diphenyl-1,3,5-triazin-2-yl)-5-hexoxyphenol

> <PUBCHEM_IUPAC_NAME_MARKUP>
2-(4,6-diphenyl-1,3,5-triazin-2-yl)-5-hexoxyphenol

> <PUBCHEM_IUPAC_NAME>
2-(4,6-diphenyl-1,3,5-triazin-2-yl)-5-hexoxyphenol

> <PUBCHEM_IUPAC_SYSTEMATIC_NAME>
2-(4,6-diphenyl-1,3,5-triazin-2-yl)-5-hexoxy-phenol

> <PUBCHEM_IUPAC_TRADITIONAL_NAME>
2-(4,6-diphenyl-s-triazin-2-yl)-5-hexoxy-phenol

> <PUBCHEM_IUPAC_INCHI>
InChI=1S/C27H27N3O2/c1-2-3-4-11-18-32-22-16-17-23(24(31)19-22)27-29-25(20-12-7-5-8-13-20)28-26(30-27)21-14-9-6-10-15-21/h5-10,12-17,19,31H,2-4,11,18H2,1H3

> <PUBCHEM_IUPAC_INCHIKEY>
LEVFXWNQQSSNAC-UHFFFAOYSA-N

> <PUBCHEM_XLOGP3_AA>
6.9

> <PUBCHEM_EXACT_MASS>
425.21032711

> <PUBCHEM_MOLECULAR_FORMULA>
C27H27N3O2

> <PUBCHEM_MOLECULAR_WEIGHT>
425.5

> <PUBCHEM_SMILES>
CCCCCCOC1=CC(=C(C=C1)C2=NC(=NC(=N2)C3=CC=CC=C3)C4=CC=CC=C4)O

> <PUBCHEM_OPENEYE_CAN_SMILES>
CCCCCCOC1=CC(=C(C=C1)C2=NC(=NC(=N2)C3=CC=CC=C3)C4=CC=CC=C4)O

> <PUBCHEM_OPENEYE_ISO_SMILES>
CCCCCCOC1=CC(=C(C=C1)C2=NC(=NC(=N2)C3=CC=CC=C3)C4=CC=CC=C4)O

> <PUBCHEM_CACTVS_TPSA>
68.1

> <PUBCHEM_MONOISOTOPIC_WEIGHT>
425.21032711

> <PUBCHEM_TOTAL_CHARGE>
0

> <PUBCHEM_HEAVY_ATOM_COUNT>
32

> <PUBCHEM_ATOM_DEF_STEREO_COUNT>
0

> <PUBCHEM_ATOM_UDEF_STEREO_COUNT>
0

> <PUBCHEM_BOND_DEF_STEREO_COUNT>
0

> <PUBCHEM_BOND_UDEF_STEREO_COUNT>
0

> <PUBCHEM_ISOTOPIC_ATOM_COUNT>
0

> <PUBCHEM_COMPONENT_COUNT>
1

> <PUBCHEM_CACTVS_TAUTO_COUNT>
-1

> <PUBCHEM_COORDINATE_TYPE>
1
5
255

> <PUBCHEM_BONDANNOTATIONS>
12  14  8
12  15  8
13  16  8
13  17  8
14  16  8
15  17  8
21  23  8
21  24  8
22  25  8
22  26  8
23  27  8
24  28  8
25  29  8
26  30  8
27  31  8
28  31  8
29  32  8
3  18  8
3  19  8
30  32  8
4  18  8
4  20  8
5  19  8
5  20  8

$$$$
