517202
  -OEChem-04042512262D

 12 11  0     0  0  0  0  0  0999 V2000
    4.5981    2.0000    0.0000 Cl  0  0  0  0  0  0  0  0  0  0  0  0
    6.3301   -1.0000    0.0000 Cl  0  0  0  0  0  0  0  0  0  0  0  0
    2.0000    0.5000    0.0000 Na  0  3  0  0  0  0  0  0  0  0  0  0
    2.8660    1.0000    0.0000 O   0  5  0  0  0  0  0  0  0  0  0  0
    6.3301    1.0000    0.0000 O   0  0  0  0  0  0  0  0  0  0  0  0
    4.5981   -2.0000    0.0000 O   0  0  0  0  0  0  0  0  0  0  0  0
    4.5981    1.0000    0.0000 N   0  0  0  0  0  0  0  0  0  0  0  0
    5.4641   -0.5000    0.0000 N   0  0  0  0  0  0  0  0  0  0  0  0
    3.7320   -0.5000    0.0000 N   0  0  0  0  0  0  0  0  0  0  0  0
    5.4641    0.5000    0.0000 C   0  0  0  0  0  0  0  0  0  0  0  0
    3.7320    0.5000    0.0000 C   0  0  0  0  0  0  0  0  0  0  0  0
    4.5981   -1.0000    0.0000 C   0  0  0  0  0  0  0  0  0  0  0  0
  1  7  1  0  0  0  0
  2  8  1  0  0  0  0
  4 11  1  0  0  0  0
  5 10  2  0  0  0  0
  6 12  2  0  0  0  0
  7 10  1  0  0  0  0
  7 11  1  0  0  0  0
  8 10  1  0  0  0  0
  8 12  1  0  0  0  0
  9 11  2  0  0  0  0
  9 12  1  0  0  0  0
M  CHG  2   3   1   4  -1
M  END
> <PUBCHEM_COMPOUND_CID>
517202

> <PUBCHEM_COMPOUND_CANONICALIZED>
1

> <PUBCHEM_CACTVS_COMPLEXITY>
257

> <PUBCHEM_CACTVS_HBOND_ACCEPTOR>
3

> <PUBCHEM_CACTVS_HBOND_DONOR>
0

> <PUBCHEM_CACTVS_ROTATABLE_BOND>
0

> <PUBCHEM_CACTVS_SUBSKEYS>
AAADcQBDMCAGAAAAAAAAAAAAAAAAAAAAAAAgAAAAAAAAAAAAAAAABgAAIAAAAAAAAAABAAIAAAAoAAAANAAAAAEAAAABAAAAAACAAAAAAAAAAAAIASAAAAAAAAAAAAAAAAAAAAAAAAAAAAAAAAAAAAAAAA==

> <PUBCHEM_IUPAC_OPENEYE_NAME>
sodium;1,5-dichloro-4,6-dioxo-1,3,5-triazin-2-olate

> <PUBCHEM_IUPAC_CAS_NAME>
sodium;1,5-dichloro-4,6-dioxo-1,3,5-triazin-2-olate

> <PUBCHEM_IUPAC_NAME_MARKUP>
sodium;1,5-dichloro-4,6-dioxo-1,3,5-triazin-2-olate

> <PUBCHEM_IUPAC_NAME>
sodium;1,5-dichloro-4,6-dioxo-1,3,5-triazin-2-olate

> <PUBCHEM_IUPAC_SYSTEMATIC_NAME>
sodium;1,5-bis(chloranyl)-4,6-bis(oxidanylidene)-1,3,5-triazin-2-olate

> <PUBCHEM_IUPAC_TRADITIONAL_NAME>
sodium;1,5-dichloro-4,6-diketo-s-triazin-2-olate

> <PUBCHEM_IUPAC_INCHI>
InChI=1S/C3HCl2N3O3.Na/c4-7-1(9)6-2(10)8(5)3(7)11;/h(H,6,9,10);/q;+1/p-1

> <PUBCHEM_IUPAC_INCHIKEY>
MSFGZHUJTJBYFA-UHFFFAOYSA-M

> <PUBCHEM_EXACT_MASS>
218.9214405

> <PUBCHEM_MOLECULAR_FORMULA>
C3Cl2N3NaO3

> <PUBCHEM_MOLECULAR_WEIGHT>
219.94

> <PUBCHEM_REFERENCE_STANDARDIZATION>
Bypass - this structure was created from CID 517202

> <PUBCHEM_SMILES>
C1(=NC(=O)N(C(=O)N1Cl)Cl)[O-].[Na+]

> <PUBCHEM_OPENEYE_CAN_SMILES>
C1(=NC(=O)N(C(=O)N1Cl)Cl)[O-].[Na+]

> <PUBCHEM_OPENEYE_ISO_SMILES>
C1(=NC(=O)N(C(=O)N1Cl)Cl)[O-].[Na+]

> <PUBCHEM_CACTVS_TPSA>
76

> <PUBCHEM_MONOISOTOPIC_WEIGHT>
218.9214405

> <PUBCHEM_TOTAL_CHARGE>
0

> <PUBCHEM_HEAVY_ATOM_COUNT>
12

> <PUBCHEM_ATOM_DEF_STEREO_COUNT>
0

> <PUBCHEM_ATOM_UDEF_STEREO_COUNT>
0

> <PUBCHEM_BOND_DEF_STEREO_COUNT>
0

> <PUBCHEM_BOND_UDEF_STEREO_COUNT>
0

> <PUBCHEM_ISOTOPIC_ATOM_COUNT>
0

> <PUBCHEM_COMPONENT_COUNT>
2

> <PUBCHEM_CACTVS_TAUTO_COUNT>
-1

> <PUBCHEM_NONSTANDARDBOND>
3  4  7

> <PUBCHEM_COORDINATE_TYPE>
1
5
255

> <PUBCHEM_BONDANNOTATIONS>
7  10  8
7  11  8
8  10  8
8  12  8
9  11  8
9  12  8

$$$$
