5462311
  -OEChem-03202506192D

  1  0  0     0  0  0  0  0  0999 V2000
    2.0000    0.0000    0.0000 B   0  0  0  0  0 15  0  0  0  0  0  0
M  END
> <PUBCHEM_COMPOUND_CID>
5462311

> <PUBCHEM_COMPOUND_CANONICALIZED>
1

> <PUBCHEM_CACTVS_COMPLEXITY>
0

> <PUBCHEM_CACTVS_HBOND_ACCEPTOR>
0

> <PUBCHEM_CACTVS_HBOND_DONOR>
0

> <PUBCHEM_CACTVS_ROTATABLE_BOND>
0

> <PUBCHEM_CACTVS_SUBSKEYS>
AAADcQIAAAAAAAAAAAAAAAAAAAAAAAAAAAAAAAAAAAAAAAAAAAAAAAAAAAAAAAAAAAAAAAAAAAAAAAAAAAAAAAAAAAAAAAAAAAAAAAAAAAAAAAAAAAAAAAAAAAAAAAAAAAAAAAAAAAAAAAAAAAAAAAAAAA==

> <PUBCHEM_IUPAC_OPENEYE_NAME>
boron

> <PUBCHEM_IUPAC_CAS_NAME>
boron

> <PUBCHEM_IUPAC_NAME_MARKUP>
boron

> <PUBCHEM_IUPAC_NAME>
boron

> <PUBCHEM_IUPAC_SYSTEMATIC_NAME>
boron

> <PUBCHEM_IUPAC_TRADITIONAL_NAME>
boron

> <PUBCHEM_IUPAC_INCHI>
InChI=1S/B

> <PUBCHEM_IUPAC_INCHIKEY>
ZOXJGFHDIHLPTG-UHFFFAOYSA-N

> <PUBCHEM_EXACT_MASS>
11.0093052

> <PUBCHEM_MOLECULAR_FORMULA>
B

> <PUBCHEM_MOLECULAR_WEIGHT>
10.81

> <PUBCHEM_SMILES>
[B]

> <PUBCHEM_OPENEYE_CAN_SMILES>
[B]

> <PUBCHEM_OPENEYE_ISO_SMILES>
[B]

> <PUBCHEM_CACTVS_TPSA>
0

> <PUBCHEM_MONOISOTOPIC_WEIGHT>
11.0093052

> <PUBCHEM_TOTAL_CHARGE>
0

> <PUBCHEM_HEAVY_ATOM_COUNT>
1

> <PUBCHEM_ATOM_DEF_STEREO_COUNT>
0

> <PUBCHEM_ATOM_UDEF_STEREO_COUNT>
0

> <PUBCHEM_BOND_DEF_STEREO_COUNT>
0

> <PUBCHEM_BOND_UDEF_STEREO_COUNT>
0

> <PUBCHEM_ISOTOPIC_ATOM_COUNT>
0

> <PUBCHEM_COMPONENT_COUNT>
1

> <PUBCHEM_CACTVS_TAUTO_COUNT>
-1

> <PUBCHEM_COORDINATE_TYPE>
1
5
255

$$$$
