56951713
  -OEChem-03202503122D

  1  0  0     0  0  0  0  0  0999 V2000
    2.0000    0.0000    0.0000 Bh  0  0  0  0  0  0  0  0  0  0  0  0
M  END
> <PUBCHEM_COMPOUND_CID>
56951713

> <PUBCHEM_COMPOUND_CANONICALIZED>
1

> <PUBCHEM_CACTVS_COMPLEXITY>
0

> <PUBCHEM_CACTVS_HBOND_ACCEPTOR>
0

> <PUBCHEM_CACTVS_HBOND_DONOR>
0

> <PUBCHEM_CACTVS_ROTATABLE_BOND>
0

> <PUBCHEM_CACTVS_SUBSKEYS>
AAADcQAAAAAAAAAAAAAAAAAAAAAAAAAAAAAAAAAAAAAAAAAAAAAAAAAAAAAAAAAAAAAAAAAAAAAAAAAAAAAAAAAAAAAAAAAAAAAAAAAAAAAAAAAAAAAAAAAAAAAAAAAAAAAAAAAAAAAAAAAAAAAAAAAAAA==

> <PUBCHEM_IUPAC_OPENEYE_NAME>
bohrium

> <PUBCHEM_IUPAC_CAS_NAME>
bohrium

> <PUBCHEM_IUPAC_NAME_MARKUP>
bohrium

> <PUBCHEM_IUPAC_NAME>
bohrium

> <PUBCHEM_IUPAC_SYSTEMATIC_NAME>
bohrium

> <PUBCHEM_IUPAC_TRADITIONAL_NAME>
bohrium

> <PUBCHEM_IUPAC_INCHI>
InChI=1S/Bh

> <PUBCHEM_IUPAC_INCHIKEY>
INOXRQQPOOCQPH-UHFFFAOYSA-N

> <PUBCHEM_EXACT_MASS>
270.133

> <PUBCHEM_MOLECULAR_FORMULA>
Bh

> <PUBCHEM_MOLECULAR_WEIGHT>
270.133

> <PUBCHEM_SMILES>
[Bh]

> <PUBCHEM_OPENEYE_CAN_SMILES>
[Bh]

> <PUBCHEM_OPENEYE_ISO_SMILES>
[Bh]

> <PUBCHEM_CACTVS_TPSA>
0

> <PUBCHEM_MONOISOTOPIC_WEIGHT>
270.133

> <PUBCHEM_TOTAL_CHARGE>
0

> <PUBCHEM_HEAVY_ATOM_COUNT>
1

> <PUBCHEM_ATOM_DEF_STEREO_COUNT>
0

> <PUBCHEM_ATOM_UDEF_STEREO_COUNT>
0

> <PUBCHEM_BOND_DEF_STEREO_COUNT>
0

> <PUBCHEM_BOND_UDEF_STEREO_COUNT>
0

> <PUBCHEM_ISOTOPIC_ATOM_COUNT>
0

> <PUBCHEM_COMPONENT_COUNT>
1

> <PUBCHEM_CACTVS_TAUTO_COUNT>
-1

> <PUBCHEM_COORDINATE_TYPE>
1
5
255

$$$$
