58995446
  -OEChem-04042505472D

 75 78  0     1  0  0  0  0  0999 V2000
    7.1962    0.9050    0.0000 O   0  0  0  0  0  0  0  0  0  0  0  0
    8.9561   -1.1297    0.0000 O   0  0  0  0  0  0  0  0  0  0  0  0
    9.8622    0.4258    0.0000 O   0  0  0  0  0  0  0  0  0  0  0  0
    6.3301   -0.5950    0.0000 O   0  0  0  0  0  0  0  0  0  0  0  0
    8.0622   -2.5950    0.0000 O   0  0  0  0  0  0  0  0  0  0  0  0
    6.3301   -3.5950    0.0000 O   0  0  0  0  0  0  0  0  0  0  0  0
    8.0622    0.4050    0.0000 C   0  0  3  0  0  0  0  0  0  0  0  0
    8.0622   -0.5950    0.0000 C   0  0  3  0  0  0  0  0  0  0  0  0
    8.9561    0.9397    0.0000 C   0  0  3  0  0  0  0  0  0  0  0  0
    7.1962   -1.0950    0.0000 C   0  0  3  0  0  0  0  0  0  0  0  0
    8.9446    1.9396    0.0000 C   0  0  0  0  0  0  0  0  0  0  0  0
    7.1962   -2.0950    0.0000 C   0  0  3  0  0  0  0  0  0  0  0  0
    9.8622   -0.6158    0.0000 C   0  0  3  0  0  0  0  0  0  0  0  0
    6.3301    0.4050    0.0000 C   0  0  3  0  0  0  0  0  0  0  0  0
    9.8047    2.4496    0.0000 C   0  0  0  0  0  0  0  0  0  0  0  0
    6.3301   -2.5950    0.0000 C   0  0  0  0  0  0  0  0  0  0  0  0
   10.7263   -1.1192    0.0000 C   0  0  0  0  0  0  0  0  0  0  0  0
    5.4641    0.9050    0.0000 C   0  0  0  0  0  0  0  0  0  0  0  0
    9.7932    3.4495    0.0000 C   0  0  0  0  0  0  0  0  0  0  0  0
   11.5942   -0.6225    0.0000 C   0  0  0  0  0  0  0  0  0  0  0  0
   10.7224   -2.1191    0.0000 C   0  0  0  0  0  0  0  0  0  0  0  0
    4.5981    0.4050    0.0000 C   0  0  0  0  0  0  0  0  0  0  0  0
    5.4641    1.9050    0.0000 C   0  0  0  0  0  0  0  0  0  0  0  0
   12.4583   -1.1258    0.0000 C   0  0  0  0  0  0  0  0  0  0  0  0
   11.5865   -2.6225    0.0000 C   0  0  0  0  0  0  0  0  0  0  0  0
    3.7320    0.9050    0.0000 C   0  0  0  0  0  0  0  0  0  0  0  0
    4.5981    2.4050    0.0000 C   0  0  0  0  0  0  0  0  0  0  0  0
   12.4545   -2.1258    0.0000 C   0  0  0  0  0  0  0  0  0  0  0  0
    3.7320    1.9050    0.0000 C   0  0  0  0  0  0  0  0  0  0  0  0
   13.3186   -2.6292    0.0000 C   0  0  0  0  0  0  0  0  0  0  0  0
    2.8660    2.4050    0.0000 C   0  0  0  0  0  0  0  0  0  0  0  0
    2.8660    3.4050    0.0000 C   0  0  0  0  0  0  0  0  0  0  0  0
   14.1865   -2.1325    0.0000 C   0  0  0  0  0  0  0  0  0  0  0  0
    2.0000    3.9050    0.0000 C   0  0  0  0  0  0  0  0  0  0  0  0
   15.0506   -2.6358    0.0000 C   0  0  0  0  0  0  0  0  0  0  0  0
    8.0574    1.0250    0.0000 H   0  0  0  0  0  0  0  0  0  0  0  0
    8.0574   -1.2150    0.0000 H   0  0  0  0  0  0  0  0  0  0  0  0
    9.4900    1.2548    0.0000 H   0  0  0  0  0  0  0  0  0  0  0  0
    6.6592   -1.4050    0.0000 H   0  0  0  0  0  0  0  0  0  0  0  0
    8.7258    2.5197    0.0000 H   0  0  0  0  0  0  0  0  0  0  0  0
    8.3353    1.8249    0.0000 H   0  0  0  0  0  0  0  0  0  0  0  0
    7.7331   -1.7850    0.0000 H   0  0  0  0  0  0  0  0  0  0  0  0
    9.8586   -1.2358    0.0000 H   0  0  0  0  0  0  0  0  0  0  0  0
    5.7932    0.0950    0.0000 H   0  0  0  0  0  0  0  0  0  0  0  0
   10.0235    1.8695    0.0000 H   0  0  0  0  0  0  0  0  0  0  0  0
   10.4140    2.5643    0.0000 H   0  0  0  0  0  0  0  0  0  0  0  0
    6.1181   -2.0124    0.0000 H   0  0  0  0  0  0  0  0  0  0  0  0
    5.7196   -2.7027    0.0000 H   0  0  0  0  0  0  0  0  0  0  0  0
    8.0622   -3.2150    0.0000 H   0  0  0  0  0  0  0  0  0  0  0  0
   10.4131    3.4567    0.0000 H   0  0  0  0  0  0  0  0  0  0  0  0
    9.7860    4.0695    0.0000 H   0  0  0  0  0  0  0  0  0  0  0  0
    9.1732    3.4423    0.0000 H   0  0  0  0  0  0  0  0  0  0  0  0
   11.5966   -0.0025    0.0000 H   0  0  0  0  0  0  0  0  0  0  0  0
   10.1843   -2.4271    0.0000 H   0  0  0  0  0  0  0  0  0  0  0  0
    4.5981   -0.2150    0.0000 H   0  0  0  0  0  0  0  0  0  0  0  0
    6.0010    2.2150    0.0000 H   0  0  0  0  0  0  0  0  0  0  0  0
    5.7932   -3.9050    0.0000 H   0  0  0  0  0  0  0  0  0  0  0  0
   12.9964   -0.8179    0.0000 H   0  0  0  0  0  0  0  0  0  0  0  0
   11.5841   -3.2425    0.0000 H   0  0  0  0  0  0  0  0  0  0  0  0
    3.1951    0.5950    0.0000 H   0  0  0  0  0  0  0  0  0  0  0  0
    4.5981    3.0250    0.0000 H   0  0  0  0  0  0  0  0  0  0  0  0
   12.9182   -3.1026    0.0000 H   0  0  0  0  0  0  0  0  0  0  0  0
   13.7152   -3.1056    0.0000 H   0  0  0  0  0  0  0  0  0  0  0  0
    2.2554    2.5127    0.0000 H   0  0  0  0  0  0  0  0  0  0  0  0
    2.6540    1.8224    0.0000 H   0  0  0  0  0  0  0  0  0  0  0  0
    3.4766    3.2973    0.0000 H   0  0  0  0  0  0  0  0  0  0  0  0
    3.0781    3.9876    0.0000 H   0  0  0  0  0  0  0  0  0  0  0  0
   14.5869   -1.6591    0.0000 H   0  0  0  0  0  0  0  0  0  0  0  0
   13.7898   -1.6560    0.0000 H   0  0  0  0  0  0  0  0  0  0  0  0
    2.3100    4.4419    0.0000 H   0  0  0  0  0  0  0  0  0  0  0  0
    1.4631    4.2150    0.0000 H   0  0  0  0  0  0  0  0  0  0  0  0
    1.6900    3.3681    0.0000 H   0  0  0  0  0  0  0  0  0  0  0  0
   14.7385   -3.1716    0.0000 H   0  0  0  0  0  0  0  0  0  0  0  0
   15.5863   -2.9479    0.0000 H   0  0  0  0  0  0  0  0  0  0  0  0
   15.3627   -2.1001    0.0000 H   0  0  0  0  0  0  0  0  0  0  0  0
  1  7  1  0  0  0  0
  1 14  1  0  0  0  0
  2  8  1  0  0  0  0
  2 13  1  0  0  0  0
  3  9  1  0  0  0  0
  3 13  1  0  0  0  0
  4 10  1  0  0  0  0
  4 14  1  0  0  0  0
  5 12  1  0  0  0  0
  5 49  1  0  0  0  0
  6 16  1  0  0  0  0
  6 57  1  0  0  0  0
  7  8  1  0  0  0  0
  7  9  1  0  0  0  0
  7 36  1  0  0  0  0
  8 10  1  0  0  0  0
  8 37  1  0  0  0  0
  9 11  1  0  0  0  0
  9 38  1  0  0  0  0
 10 12  1  0  0  0  0
 10 39  1  0  0  0  0
 11 15  1  0  0  0  0
 11 40  1  0  0  0  0
 11 41  1  0  0  0  0
 12 16  1  0  0  0  0
 12 42  1  0  0  0  0
 13 17  1  0  0  0  0
 13 43  1  0  0  0  0
 14 18  1  0  0  0  0
 14 44  1  0  0  0  0
 15 19  1  0  0  0  0
 15 45  1  0  0  0  0
 15 46  1  0  0  0  0
 16 47  1  0  0  0  0
 16 48  1  0  0  0  0
 17 20  2  0  0  0  0
 17 21  1  0  0  0  0
 18 22  2  0  0  0  0
 18 23  1  0  0  0  0
 19 50  1  0  0  0  0
 19 51  1  0  0  0  0
 19 52  1  0  0  0  0
 20 24  1  0  0  0  0
 20 53  1  0  0  0  0
 21 25  2  0  0  0  0
 21 54  1  0  0  0  0
 22 26  1  0  0  0  0
 22 55  1  0  0  0  0
 23 27  2  0  0  0  0
 23 56  1  0  0  0  0
 24 28  2  0  0  0  0
 24 58  1  0  0  0  0
 25 28  1  0  0  0  0
 25 59  1  0  0  0  0
 26 29  2  0  0  0  0
 26 60  1  0  0  0  0
 27 29  1  0  0  0  0
 27 61  1  0  0  0  0
 28 30  1  0  0  0  0
 29 31  1  0  0  0  0
 30 33  1  0  0  0  0
 30 62  1  0  0  0  0
 30 63  1  0  0  0  0
 31 32  1  0  0  0  0
 31 64  1  0  0  0  0
 31 65  1  0  0  0  0
 32 34  1  0  0  0  0
 32 66  1  0  0  0  0
 32 67  1  0  0  0  0
 33 35  1  0  0  0  0
 33 68  1  0  0  0  0
 33 69  1  0  0  0  0
 34 70  1  0  0  0  0
 34 71  1  0  0  0  0
 34 72  1  0  0  0  0
 35 73  1  0  0  0  0
 35 74  1  0  0  0  0
 35 75  1  0  0  0  0
M  END
> <PUBCHEM_COMPOUND_CID>
58995446

> <PUBCHEM_COMPOUND_CANONICALIZED>
1

> <PUBCHEM_CACTVS_COMPLEXITY>
600

> <PUBCHEM_CACTVS_HBOND_ACCEPTOR>
6

> <PUBCHEM_CACTVS_HBOND_DONOR>
2

> <PUBCHEM_CACTVS_ROTATABLE_BOND>
10

> <PUBCHEM_CACTVS_SUBSKEYS>
AAADcfB4OAAAAAAAAAAAAAAAAAAAAAAAAAA0aIEAAAAAAACRQAAAGgAACAAADBSwmAMyCIAABgCAAiBCAAACAAAgAAAIiAAACIgZNiKAMRiicAAlwAEPqAfA4PwOQAAAAAAAAACAAAAAAAAAAAAAAAAAAA==

> <PUBCHEM_IUPAC_OPENEYE_NAME>
1-[8-propyl-2,6-bis(4-propylphenyl)-4,4a,8,8a-tetrahydro-[1,3]dioxino[5,4-d][1,3]dioxin-4-yl]ethane-1,2-diol

> <PUBCHEM_IUPAC_CAS_NAME>
1-[8-propyl-2,6-bis(4-propylphenyl)-4,4a,8,8a-tetrahydro-[1,3]dioxino[5,4-d][1,3]dioxin-4-yl]ethane-1,2-diol

> <PUBCHEM_IUPAC_NAME_MARKUP>
1-[8-propyl-2,6-bis(4-propylphenyl)-4,4<I>a</I>,8,8<I>a</I>-tetrahydro-[1,3]dioxino[5,4-d][1,3]dioxin-4-yl]ethane-1,2-diol

> <PUBCHEM_IUPAC_NAME>
1-[8-propyl-2,6-bis(4-propylphenyl)-4,4a,8,8a-tetrahydro-[1,3]dioxino[5,4-d][1,3]dioxin-4-yl]ethane-1,2-diol

> <PUBCHEM_IUPAC_SYSTEMATIC_NAME>
1-[8-propyl-2,6-bis(4-propylphenyl)-4,4a,8,8a-tetrahydro-[1,3]dioxino[5,4-d][1,3]dioxin-4-yl]ethane-1,2-diol

> <PUBCHEM_IUPAC_TRADITIONAL_NAME>
1-[8-propyl-2,6-bis(4-propylphenyl)-4,4a,8,8a-tetrahydro-[1,3]dioxino[5,4-d][1,3]dioxin-4-yl]ethane-1,2-diol

> <PUBCHEM_IUPAC_INCHI>
InChI=1S/C29H40O6/c1-4-7-19-10-14-21(15-11-19)28-32-24(9-6-3)26-27(35-28)25(23(31)18-30)33-29(34-26)22-16-12-20(8-5-2)13-17-22/h10-17,23-31H,4-9,18H2,1-3H3

> <PUBCHEM_IUPAC_INCHIKEY>
PIYNPBVOTLQBTC-UHFFFAOYSA-N

> <PUBCHEM_XLOGP3_AA>
5.3

> <PUBCHEM_EXACT_MASS>
484.28248899

> <PUBCHEM_MOLECULAR_FORMULA>
C29H40O6

> <PUBCHEM_MOLECULAR_WEIGHT>
484.6

> <PUBCHEM_SMILES>
CCCC1C2C(C(OC(O2)C3=CC=C(C=C3)CCC)C(CO)O)OC(O1)C4=CC=C(C=C4)CCC

> <PUBCHEM_OPENEYE_CAN_SMILES>
CCCC1C2C(C(OC(O2)C3=CC=C(C=C3)CCC)C(CO)O)OC(O1)C4=CC=C(C=C4)CCC

> <PUBCHEM_OPENEYE_ISO_SMILES>
CCCC1C2C(C(OC(O2)C3=CC=C(C=C3)CCC)C(CO)O)OC(O1)C4=CC=C(C=C4)CCC

> <PUBCHEM_CACTVS_TPSA>
77.4

> <PUBCHEM_MONOISOTOPIC_WEIGHT>
484.28248899

> <PUBCHEM_TOTAL_CHARGE>
0

> <PUBCHEM_HEAVY_ATOM_COUNT>
35

> <PUBCHEM_ATOM_DEF_STEREO_COUNT>
0

> <PUBCHEM_ATOM_UDEF_STEREO_COUNT>
7

> <PUBCHEM_BOND_DEF_STEREO_COUNT>
0

> <PUBCHEM_BOND_UDEF_STEREO_COUNT>
0

> <PUBCHEM_ISOTOPIC_ATOM_COUNT>
0

> <PUBCHEM_COMPONENT_COUNT>
1

> <PUBCHEM_CACTVS_TAUTO_COUNT>
-1

> <PUBCHEM_COORDINATE_TYPE>
1
5
255

> <PUBCHEM_BONDANNOTATIONS>
7  1  3
13  17  3
14  18  3
17  20  8
17  21  8
18  22  8
18  23  8
8  2  3
20  24  8
21  25  8
22  26  8
23  27  8
24  28  8
25  28  8
26  29  8
27  29  8
10  4  3
12  5  3
9  11  3

$$$$
