61042
  -OEChem-04042512312D

 66 70  0     0  0  0  0  0  0999 V2000
    4.6660    2.0000    0.0000 O   0  0  0  0  0  0  0  0  0  0  0  0
    4.6660   -2.0000    0.0000 O   0  0  0  0  0  0  0  0  0  0  0  0
    6.4144    2.0346    0.0000 N   0  0  0  0  0  0  0  0  0  0  0  0
    6.4144   -2.0346    0.0000 N   0  0  0  0  0  0  0  0  0  0  0  0
    5.5321    0.5000    0.0000 C   0  0  0  0  0  0  0  0  0  0  0  0
    5.5321   -0.5000    0.0000 C   0  0  0  0  0  0  0  0  0  0  0  0
    6.4260    1.0347    0.0000 C   0  0  0  0  0  0  0  0  0  0  0  0
    6.4260   -1.0347    0.0000 C   0  0  0  0  0  0  0  0  0  0  0  0
    4.6660    1.0000    0.0000 C   0  0  0  0  0  0  0  0  0  0  0  0
    4.6660   -1.0000    0.0000 C   0  0  0  0  0  0  0  0  0  0  0  0
    3.8000    0.5000    0.0000 C   0  0  0  0  0  0  0  0  0  0  0  0
    3.8000   -0.5000    0.0000 C   0  0  0  0  0  0  0  0  0  0  0  0
    7.3321    0.5208    0.0000 C   0  0  0  0  0  0  0  0  0  0  0  0
    7.3321   -0.5208    0.0000 C   0  0  0  0  0  0  0  0  0  0  0  0
    7.2746    2.5446    0.0000 C   0  0  0  0  0  0  0  0  0  0  0  0
    7.2746   -2.5446    0.0000 C   0  0  0  0  0  0  0  0  0  0  0  0
    8.1464    2.0546    0.0000 C   0  0  0  0  0  0  0  0  0  0  0  0
    7.2631   -3.5445    0.0000 C   0  0  0  0  0  0  0  0  0  0  0  0
    7.2631    3.5445    0.0000 C   0  0  0  0  0  0  0  0  0  0  0  0
    8.1464   -2.0546    0.0000 C   0  0  0  0  0  0  0  0  0  0  0  0
    2.9061    1.0347    0.0000 C   0  0  0  0  0  0  0  0  0  0  0  0
    2.9061   -1.0347    0.0000 C   0  0  0  0  0  0  0  0  0  0  0  0
    8.9950    3.5645    0.0000 C   0  0  0  0  0  0  0  0  0  0  0  0
    8.9950   -3.5645    0.0000 C   0  0  0  0  0  0  0  0  0  0  0  0
    9.0066    2.5646    0.0000 C   0  0  0  0  0  0  0  0  0  0  0  0
    8.1232   -4.0545    0.0000 C   0  0  0  0  0  0  0  0  0  0  0  0
    8.1232    4.0545    0.0000 C   0  0  0  0  0  0  0  0  0  0  0  0
    9.0066   -2.5646    0.0000 C   0  0  0  0  0  0  0  0  0  0  0  0
    2.0000    0.5208    0.0000 C   0  0  0  0  0  0  0  0  0  0  0  0
    2.0000   -0.5208    0.0000 C   0  0  0  0  0  0  0  0  0  0  0  0
    8.1579    1.0547    0.0000 C   0  0  0  0  0  0  0  0  0  0  0  0
    6.3913   -4.0345    0.0000 C   0  0  0  0  0  0  0  0  0  0  0  0
    6.3913    4.0345    0.0000 C   0  0  0  0  0  0  0  0  0  0  0  0
    8.1579   -1.0547    0.0000 C   0  0  0  0  0  0  0  0  0  0  0  0
    9.8552    4.0745    0.0000 C   0  0  0  0  0  0  0  0  0  0  0  0
    9.8552   -4.0745    0.0000 C   0  0  0  0  0  0  0  0  0  0  0  0
    7.8678    0.8329    0.0000 H   0  0  0  0  0  0  0  0  0  0  0  0
    7.8678   -0.8329    0.0000 H   0  0  0  0  0  0  0  0  0  0  0  0
    5.8740    2.3384    0.0000 H   0  0  0  0  0  0  0  0  0  0  0  0
    5.8740   -2.3384    0.0000 H   0  0  0  0  0  0  0  0  0  0  0  0
    2.9132    1.6546    0.0000 H   0  0  0  0  0  0  0  0  0  0  0  0
    2.9132   -1.6546    0.0000 H   0  0  0  0  0  0  0  0  0  0  0  0
    9.5470    2.2608    0.0000 H   0  0  0  0  0  0  0  0  0  0  0  0
    8.1161   -4.6744    0.0000 H   0  0  0  0  0  0  0  0  0  0  0  0
    8.1161    4.6744    0.0000 H   0  0  0  0  0  0  0  0  0  0  0  0
    9.5470   -2.2608    0.0000 H   0  0  0  0  0  0  0  0  0  0  0  0
    1.4643    0.8329    0.0000 H   0  0  0  0  0  0  0  0  0  0  0  0
    1.4643   -0.8329    0.0000 H   0  0  0  0  0  0  0  0  0  0  0  0
    7.5380    1.0475    0.0000 H   0  0  0  0  0  0  0  0  0  0  0  0
    8.1651    0.4347    0.0000 H   0  0  0  0  0  0  0  0  0  0  0  0
    8.7779    1.0619    0.0000 H   0  0  0  0  0  0  0  0  0  0  0  0
    6.0875   -3.4940    0.0000 H   0  0  0  0  0  0  0  0  0  0  0  0
    5.8508   -4.3382    0.0000 H   0  0  0  0  0  0  0  0  0  0  0  0
    6.6951   -4.5749    0.0000 H   0  0  0  0  0  0  0  0  0  0  0  0
    6.6951    4.5749    0.0000 H   0  0  0  0  0  0  0  0  0  0  0  0
    5.8508    4.3382    0.0000 H   0  0  0  0  0  0  0  0  0  0  0  0
    6.0875    3.4940    0.0000 H   0  0  0  0  0  0  0  0  0  0  0  0
    8.7779   -1.0619    0.0000 H   0  0  0  0  0  0  0  0  0  0  0  0
    8.1651   -0.4347    0.0000 H   0  0  0  0  0  0  0  0  0  0  0  0
    7.5380   -1.0475    0.0000 H   0  0  0  0  0  0  0  0  0  0  0  0
   10.1714    3.5412    0.0000 H   0  0  0  0  0  0  0  0  0  0  0  0
   10.3885    4.3907    0.0000 H   0  0  0  0  0  0  0  0  0  0  0  0
    9.5390    4.6078    0.0000 H   0  0  0  0  0  0  0  0  0  0  0  0
    9.5390   -4.6078    0.0000 H   0  0  0  0  0  0  0  0  0  0  0  0
   10.3885   -4.3907    0.0000 H   0  0  0  0  0  0  0  0  0  0  0  0
   10.1714   -3.5412    0.0000 H   0  0  0  0  0  0  0  0  0  0  0  0
  1  9  2  0  0  0  0
  2 10  2  0  0  0  0
  3  7  1  0  0  0  0
  3 15  1  0  0  0  0
  3 39  1  0  0  0  0
  4  8  1  0  0  0  0
  4 16  1  0  0  0  0
  4 40  1  0  0  0  0
  5  6  1  0  0  0  0
  5  7  2  0  0  0  0
  5  9  1  0  0  0  0
  6  8  2  0  0  0  0
  6 10  1  0  0  0  0
  7 13  1  0  0  0  0
  8 14  1  0  0  0  0
  9 11  1  0  0  0  0
 10 12  1  0  0  0  0
 11 12  1  0  0  0  0
 11 21  2  0  0  0  0
 12 22  2  0  0  0  0
 13 14  2  0  0  0  0
 13 37  1  0  0  0  0
 14 38  1  0  0  0  0
 15 17  2  0  0  0  0
 15 19  1  0  0  0  0
 16 18  2  0  0  0  0
 16 20  1  0  0  0  0
 17 25  1  0  0  0  0
 17 31  1  0  0  0  0
 18 26  1  0  0  0  0
 18 32  1  0  0  0  0
 19 27  2  0  0  0  0
 19 33  1  0  0  0  0
 20 28  2  0  0  0  0
 20 34  1  0  0  0  0
 21 29  1  0  0  0  0
 21 41  1  0  0  0  0
 22 30  1  0  0  0  0
 22 42  1  0  0  0  0
 23 25  2  0  0  0  0
 23 27  1  0  0  0  0
 23 35  1  0  0  0  0
 24 26  2  0  0  0  0
 24 28  1  0  0  0  0
 24 36  1  0  0  0  0
 25 43  1  0  0  0  0
 26 44  1  0  0  0  0
 27 45  1  0  0  0  0
 28 46  1  0  0  0  0
 29 30  2  0  0  0  0
 29 47  1  0  0  0  0
 30 48  1  0  0  0  0
 31 49  1  0  0  0  0
 31 50  1  0  0  0  0
 31 51  1  0  0  0  0
 32 52  1  0  0  0  0
 32 53  1  0  0  0  0
 32 54  1  0  0  0  0
 33 55  1  0  0  0  0
 33 56  1  0  0  0  0
 33 57  1  0  0  0  0
 34 58  1  0  0  0  0
 34 59  1  0  0  0  0
 34 60  1  0  0  0  0
 35 61  1  0  0  0  0
 35 62  1  0  0  0  0
 35 63  1  0  0  0  0
 36 64  1  0  0  0  0
 36 65  1  0  0  0  0
 36 66  1  0  0  0  0
M  END
> <PUBCHEM_COMPOUND_CID>
61042

> <PUBCHEM_COMPOUND_CANONICALIZED>
1

> <PUBCHEM_CACTVS_COMPLEXITY>
722

> <PUBCHEM_CACTVS_HBOND_ACCEPTOR>
4

> <PUBCHEM_CACTVS_HBOND_DONOR>
2

> <PUBCHEM_CACTVS_ROTATABLE_BOND>
4

> <PUBCHEM_CACTVS_SUBSKEYS>
AAADceB/MAAAAAAAAAAAAAAAAAAAAAAAAAAwYMGDAAAAAADBVAAAHgAQAAAADAyBmAAywILAAACIAqRSQACCAAAlAgAIiAEAZMgIIHrAlZGEIYhgkADIyccdiMCOiACCQAASAACQAQSAACQAAAAAAAAAAA==

> <PUBCHEM_IUPAC_OPENEYE_NAME>
1,4-bis(2,4,6-trimethylanilino)anthracene-9,10-dione

> <PUBCHEM_IUPAC_CAS_NAME>
1,4-bis(2,4,6-trimethylanilino)anthracene-9,10-dione

> <PUBCHEM_IUPAC_NAME_MARKUP>
1,4-bis(2,4,6-trimethylanilino)anthracene-9,10-dione

> <PUBCHEM_IUPAC_NAME>
1,4-bis(2,4,6-trimethylanilino)anthracene-9,10-dione

> <PUBCHEM_IUPAC_SYSTEMATIC_NAME>
1,4-bis[(2,4,6-trimethylphenyl)amino]anthracene-9,10-dione

> <PUBCHEM_IUPAC_TRADITIONAL_NAME>
1,4-dimesidino-9,10-anthraquinone

> <PUBCHEM_IUPAC_INCHI>
InChI=1S/C32H30N2O2/c1-17-13-19(3)29(20(4)14-17)33-25-11-12-26(34-30-21(5)15-18(2)16-22(30)6)28-27(25)31(35)23-9-7-8-10-24(23)32(28)36/h7-16,33-34H,1-6H3

> <PUBCHEM_IUPAC_INCHIKEY>
DMDRBXCDTZRMHZ-UHFFFAOYSA-N

> <PUBCHEM_XLOGP3_AA>
9.2

> <PUBCHEM_EXACT_MASS>
474.230728204

> <PUBCHEM_MOLECULAR_FORMULA>
C32H30N2O2

> <PUBCHEM_MOLECULAR_WEIGHT>
474.6

> <PUBCHEM_SMILES>
CC1=CC(=C(C(=C1)C)NC2=C3C(=C(C=C2)NC4=C(C=C(C=C4C)C)C)C(=O)C5=CC=CC=C5C3=O)C

> <PUBCHEM_OPENEYE_CAN_SMILES>
CC1=CC(=C(C(=C1)C)NC2=C3C(=C(C=C2)NC4=C(C=C(C=C4C)C)C)C(=O)C5=CC=CC=C5C3=O)C

> <PUBCHEM_OPENEYE_ISO_SMILES>
CC1=CC(=C(C(=C1)C)NC2=C3C(=C(C=C2)NC4=C(C=C(C=C4C)C)C)C(=O)C5=CC=CC=C5C3=O)C

> <PUBCHEM_CACTVS_TPSA>
58.2

> <PUBCHEM_MONOISOTOPIC_WEIGHT>
474.230728204

> <PUBCHEM_TOTAL_CHARGE>
0

> <PUBCHEM_HEAVY_ATOM_COUNT>
36

> <PUBCHEM_ATOM_DEF_STEREO_COUNT>
0

> <PUBCHEM_ATOM_UDEF_STEREO_COUNT>
0

> <PUBCHEM_BOND_DEF_STEREO_COUNT>
0

> <PUBCHEM_BOND_UDEF_STEREO_COUNT>
0

> <PUBCHEM_ISOTOPIC_ATOM_COUNT>
0

> <PUBCHEM_COMPONENT_COUNT>
1

> <PUBCHEM_CACTVS_TAUTO_COUNT>
-1

> <PUBCHEM_COORDINATE_TYPE>
1
5
255

> <PUBCHEM_BONDANNOTATIONS>
11  12  8
11  21  8
12  22  8
13  14  8
15  17  8
15  19  8
16  18  8
16  20  8
17  25  8
18  26  8
19  27  8
20  28  8
21  29  8
22  30  8
23  25  8
23  27  8
24  26  8
24  28  8
29  30  8
5  6  8
5  7  8
6  8  8
7  13  8
8  14  8

$$$$
