61916
  -OEChem-04042506002D

 92 93  0     0  0  0  0  0  0999 V2000
    2.8660    4.7500    0.0000 O   0  0  0  0  0  0  0  0  0  0  0  0
   12.3923   -4.7500    0.0000 O   0  0  0  0  0  0  0  0  0  0  0  0
    8.0622    1.7500    0.0000 O   0  0  0  0  0  0  0  0  0  0  0  0
    7.1962   -1.7500    0.0000 O   0  0  0  0  0  0  0  0  0  0  0  0
    7.1962    0.2500    0.0000 N   0  0  0  0  0  0  0  0  0  0  0  0
    8.0622   -0.2500    0.0000 N   0  0  0  0  0  0  0  0  0  0  0  0
    2.8660    2.7500    0.0000 C   0  0  0  0  0  0  0  0  0  0  0  0
   10.6603   -5.7500    0.0000 C   0  0  0  0  0  0  0  0  0  0  0  0
    4.5981    5.7500    0.0000 C   0  0  0  0  0  0  0  0  0  0  0  0
   12.3923   -2.7500    0.0000 C   0  0  0  0  0  0  0  0  0  0  0  0
    3.7320    3.2500    0.0000 C   0  0  0  0  0  0  0  0  0  0  0  0
   10.6603   -4.7500    0.0000 C   0  0  0  0  0  0  0  0  0  0  0  0
    4.5981    4.7500    0.0000 C   0  0  0  0  0  0  0  0  0  0  0  0
   11.5263   -3.2500    0.0000 C   0  0  0  0  0  0  0  0  0  0  0  0
    3.7320    4.2500    0.0000 C   0  0  0  0  0  0  0  0  0  0  0  0
   11.5263   -4.2500    0.0000 C   0  0  0  0  0  0  0  0  0  0  0  0
    5.4641    3.2500    0.0000 C   0  0  0  0  0  0  0  0  0  0  0  0
    9.7942   -3.2500    0.0000 C   0  0  0  0  0  0  0  0  0  0  0  0
    4.5981    2.7500    0.0000 C   0  0  0  0  0  0  0  0  0  0  0  0
    9.7942   -4.2500    0.0000 C   0  0  0  0  0  0  0  0  0  0  0  0
    5.4641    4.2500    0.0000 C   0  0  0  0  0  0  0  0  0  0  0  0
   10.6603   -2.7500    0.0000 C   0  0  0  0  0  0  0  0  0  0  0  0
    2.0000    2.2500    0.0000 C   0  0  0  0  0  0  0  0  0  0  0  0
    3.3660    1.8840    0.0000 C   0  0  0  0  0  0  0  0  0  0  0  0
    2.3660    3.6160    0.0000 C   0  0  0  0  0  0  0  0  0  0  0  0
   10.6603   -6.7500    0.0000 C   0  0  0  0  0  0  0  0  0  0  0  0
    9.6602   -5.7500    0.0000 C   0  0  0  0  0  0  0  0  0  0  0  0
   11.6603   -5.7500    0.0000 C   0  0  0  0  0  0  0  0  0  0  0  0
    4.5981    6.7500    0.0000 C   0  0  0  0  0  0  0  0  0  0  0  0
    5.5981    5.7500    0.0000 C   0  0  0  0  0  0  0  0  0  0  0  0
    3.5981    5.7500    0.0000 C   0  0  0  0  0  0  0  0  0  0  0  0
   13.2583   -2.2500    0.0000 C   0  0  0  0  0  0  0  0  0  0  0  0
   11.8923   -1.8840    0.0000 C   0  0  0  0  0  0  0  0  0  0  0  0
   12.8923   -3.6160    0.0000 C   0  0  0  0  0  0  0  0  0  0  0  0
    6.3301    2.7500    0.0000 C   0  0  0  0  0  0  0  0  0  0  0  0
    8.9282   -2.7500    0.0000 C   0  0  0  0  0  0  0  0  0  0  0  0
    6.3301    1.7500    0.0000 C   0  0  0  0  0  0  0  0  0  0  0  0
    8.9282   -1.7500    0.0000 C   0  0  0  0  0  0  0  0  0  0  0  0
    7.1962    1.2500    0.0000 C   0  0  0  0  0  0  0  0  0  0  0  0
    8.0622   -1.2500    0.0000 C   0  0  0  0  0  0  0  0  0  0  0  0
    4.5981    2.1300    0.0000 H   0  0  0  0  0  0  0  0  0  0  0  0
    9.2573   -4.5600    0.0000 H   0  0  0  0  0  0  0  0  0  0  0  0
    6.0010    4.5600    0.0000 H   0  0  0  0  0  0  0  0  0  0  0  0
   10.6603   -2.1300    0.0000 H   0  0  0  0  0  0  0  0  0  0  0  0
    1.6900    2.7869    0.0000 H   0  0  0  0  0  0  0  0  0  0  0  0
    1.4631    1.9400    0.0000 H   0  0  0  0  0  0  0  0  0  0  0  0
    2.3100    1.7131    0.0000 H   0  0  0  0  0  0  0  0  0  0  0  0
    2.8291    1.5740    0.0000 H   0  0  0  0  0  0  0  0  0  0  0  0
    3.6760    1.3470    0.0000 H   0  0  0  0  0  0  0  0  0  0  0  0
    3.9030    2.1940    0.0000 H   0  0  0  0  0  0  0  0  0  0  0  0
    2.9030    3.9260    0.0000 H   0  0  0  0  0  0  0  0  0  0  0  0
    2.0560    4.1530    0.0000 H   0  0  0  0  0  0  0  0  0  0  0  0
    1.8291    3.3060    0.0000 H   0  0  0  0  0  0  0  0  0  0  0  0
   10.0403   -6.7500    0.0000 H   0  0  0  0  0  0  0  0  0  0  0  0
   10.6603   -7.3700    0.0000 H   0  0  0  0  0  0  0  0  0  0  0  0
   11.2803   -6.7500    0.0000 H   0  0  0  0  0  0  0  0  0  0  0  0
    9.6602   -5.1300    0.0000 H   0  0  0  0  0  0  0  0  0  0  0  0
    9.0402   -5.7500    0.0000 H   0  0  0  0  0  0  0  0  0  0  0  0
    9.6602   -6.3700    0.0000 H   0  0  0  0  0  0  0  0  0  0  0  0
   11.6603   -6.3700    0.0000 H   0  0  0  0  0  0  0  0  0  0  0  0
   12.2803   -5.7500    0.0000 H   0  0  0  0  0  0  0  0  0  0  0  0
   11.6603   -5.1300    0.0000 H   0  0  0  0  0  0  0  0  0  0  0  0
    5.2181    6.7500    0.0000 H   0  0  0  0  0  0  0  0  0  0  0  0
    4.5981    7.3700    0.0000 H   0  0  0  0  0  0  0  0  0  0  0  0
    3.9781    6.7500    0.0000 H   0  0  0  0  0  0  0  0  0  0  0  0
    5.5981    5.1300    0.0000 H   0  0  0  0  0  0  0  0  0  0  0  0
    6.2181    5.7500    0.0000 H   0  0  0  0  0  0  0  0  0  0  0  0
    5.5981    6.3700    0.0000 H   0  0  0  0  0  0  0  0  0  0  0  0
    3.5981    6.3700    0.0000 H   0  0  0  0  0  0  0  0  0  0  0  0
    2.9781    5.7500    0.0000 H   0  0  0  0  0  0  0  0  0  0  0  0
    3.5981    5.1300    0.0000 H   0  0  0  0  0  0  0  0  0  0  0  0
   13.5683   -2.7869    0.0000 H   0  0  0  0  0  0  0  0  0  0  0  0
   13.7953   -1.9400    0.0000 H   0  0  0  0  0  0  0  0  0  0  0  0
   12.9483   -1.7131    0.0000 H   0  0  0  0  0  0  0  0  0  0  0  0
   12.4292   -1.5740    0.0000 H   0  0  0  0  0  0  0  0  0  0  0  0
   11.5823   -1.3470    0.0000 H   0  0  0  0  0  0  0  0  0  0  0  0
   11.3554   -2.1940    0.0000 H   0  0  0  0  0  0  0  0  0  0  0  0
   12.3554   -3.9260    0.0000 H   0  0  0  0  0  0  0  0  0  0  0  0
   13.2023   -4.1530    0.0000 H   0  0  0  0  0  0  0  0  0  0  0  0
   13.4292   -3.3060    0.0000 H   0  0  0  0  0  0  0  0  0  0  0  0
    6.9407    2.6423    0.0000 H   0  0  0  0  0  0  0  0  0  0  0  0
    6.5422    3.3326    0.0000 H   0  0  0  0  0  0  0  0  0  0  0  0
    8.3176   -2.6423    0.0000 H   0  0  0  0  0  0  0  0  0  0  0  0
    8.7162   -3.3326    0.0000 H   0  0  0  0  0  0  0  0  0  0  0  0
    5.7196    1.8577    0.0000 H   0  0  0  0  0  0  0  0  0  0  0  0
    6.1181    1.1674    0.0000 H   0  0  0  0  0  0  0  0  0  0  0  0
    9.5388   -1.8577    0.0000 H   0  0  0  0  0  0  0  0  0  0  0  0
    9.1403   -1.1674    0.0000 H   0  0  0  0  0  0  0  0  0  0  0  0
    2.8660    5.3700    0.0000 H   0  0  0  0  0  0  0  0  0  0  0  0
   12.3923   -5.3700    0.0000 H   0  0  0  0  0  0  0  0  0  0  0  0
    6.6592   -0.0600    0.0000 H   0  0  0  0  0  0  0  0  0  0  0  0
    8.5991    0.0600    0.0000 H   0  0  0  0  0  0  0  0  0  0  0  0
  1 15  1  0  0  0  0
  1 89  1  0  0  0  0
  2 16  1  0  0  0  0
  2 90  1  0  0  0  0
  3 39  2  0  0  0  0
  4 40  2  0  0  0  0
  5  6  1  0  0  0  0
  5 39  1  0  0  0  0
  5 91  1  0  0  0  0
  6 40  1  0  0  0  0
  6 92  1  0  0  0  0
  7 11  1  0  0  0  0
  7 23  1  0  0  0  0
  7 24  1  0  0  0  0
  7 25  1  0  0  0  0
  8 12  1  0  0  0  0
  8 26  1  0  0  0  0
  8 27  1  0  0  0  0
  8 28  1  0  0  0  0
  9 13  1  0  0  0  0
  9 29  1  0  0  0  0
  9 30  1  0  0  0  0
  9 31  1  0  0  0  0
 10 14  1  0  0  0  0
 10 32  1  0  0  0  0
 10 33  1  0  0  0  0
 10 34  1  0  0  0  0
 11 15  2  0  0  0  0
 11 19  1  0  0  0  0
 12 16  2  0  0  0  0
 12 20  1  0  0  0  0
 13 15  1  0  0  0  0
 13 21  2  0  0  0  0
 14 16  1  0  0  0  0
 14 22  2  0  0  0  0
 17 19  2  0  0  0  0
 17 21  1  0  0  0  0
 17 35  1  0  0  0  0
 18 20  2  0  0  0  0
 18 22  1  0  0  0  0
 18 36  1  0  0  0  0
 19 41  1  0  0  0  0
 20 42  1  0  0  0  0
 21 43  1  0  0  0  0
 22 44  1  0  0  0  0
 23 45  1  0  0  0  0
 23 46  1  0  0  0  0
 23 47  1  0  0  0  0
 24 48  1  0  0  0  0
 24 49  1  0  0  0  0
 24 50  1  0  0  0  0
 25 51  1  0  0  0  0
 25 52  1  0  0  0  0
 25 53  1  0  0  0  0
 26 54  1  0  0  0  0
 26 55  1  0  0  0  0
 26 56  1  0  0  0  0
 27 57  1  0  0  0  0
 27 58  1  0  0  0  0
 27 59  1  0  0  0  0
 28 60  1  0  0  0  0
 28 61  1  0  0  0  0
 28 62  1  0  0  0  0
 29 63  1  0  0  0  0
 29 64  1  0  0  0  0
 29 65  1  0  0  0  0
 30 66  1  0  0  0  0
 30 67  1  0  0  0  0
 30 68  1  0  0  0  0
 31 69  1  0  0  0  0
 31 70  1  0  0  0  0
 31 71  1  0  0  0  0
 32 72  1  0  0  0  0
 32 73  1  0  0  0  0
 32 74  1  0  0  0  0
 33 75  1  0  0  0  0
 33 76  1  0  0  0  0
 33 77  1  0  0  0  0
 34 78  1  0  0  0  0
 34 79  1  0  0  0  0
 34 80  1  0  0  0  0
 35 37  1  0  0  0  0
 35 81  1  0  0  0  0
 35 82  1  0  0  0  0
 36 38  1  0  0  0  0
 36 83  1  0  0  0  0
 36 84  1  0  0  0  0
 37 39  1  0  0  0  0
 37 85  1  0  0  0  0
 37 86  1  0  0  0  0
 38 40  1  0  0  0  0
 38 87  1  0  0  0  0
 38 88  1  0  0  0  0
M  END
> <PUBCHEM_COMPOUND_CID>
61916

> <PUBCHEM_COMPOUND_CANONICALIZED>
1

> <PUBCHEM_CACTVS_COMPLEXITY>
724

> <PUBCHEM_CACTVS_HBOND_ACCEPTOR>
4

> <PUBCHEM_CACTVS_HBOND_DONOR>
4

> <PUBCHEM_CACTVS_ROTATABLE_BOND>
10

> <PUBCHEM_CACTVS_SUBSKEYS>
AAADcfB/OAAAAAAAAAAAAAAAAAAAAAAAAAAwYAAAAAAAAAABQAAAHgAYCAAADgSBmAAyBoBiAgCIAiFSEAACAAAgIAISqAEECIgIJjKCkRKAcAAk0BEImAeYyOCPoAACAAAIAABAAAQAABAAAAAAAAAAAA==

> <PUBCHEM_IUPAC_OPENEYE_NAME>
3-(3,5-ditert-butyl-4-hydroxy-phenyl)-N'-[3-(3,5-ditert-butyl-4-hydroxy-phenyl)propanoyl]propanehydrazide

> <PUBCHEM_IUPAC_CAS_NAME>
3-(3,5-ditert-butyl-4-hydroxyphenyl)-N'-[3-(3,5-ditert-butyl-4-hydroxyphenyl)-1-oxopropyl]propanehydrazide

> <PUBCHEM_IUPAC_NAME_MARKUP>
3-(3,5-di<I>tert</I>-butyl-4-hydroxyphenyl)-<I>N</I>&apos;-[3-(3,5-di<I>tert</I>-butyl-4-hydroxyphenyl)propanoyl]propanehydrazide

> <PUBCHEM_IUPAC_NAME>
3-(3,5-ditert-butyl-4-hydroxyphenyl)-N'-[3-(3,5-ditert-butyl-4-hydroxyphenyl)propanoyl]propanehydrazide

> <PUBCHEM_IUPAC_SYSTEMATIC_NAME>
3-(3,5-ditert-butyl-4-oxidanyl-phenyl)-N'-[3-(3,5-ditert-butyl-4-oxidanyl-phenyl)propanoyl]propanehydrazide

> <PUBCHEM_IUPAC_TRADITIONAL_NAME>
3-(3,5-ditert-butyl-4-hydroxy-phenyl)-N'-[3-(3,5-ditert-butyl-4-hydroxy-phenyl)propanoyl]propionohydrazide

> <PUBCHEM_IUPAC_INCHI>
InChI=1S/C34H52N2O4/c1-31(2,3)23-17-21(18-24(29(23)39)32(4,5)6)13-15-27(37)35-36-28(38)16-14-22-19-25(33(7,8)9)30(40)26(20-22)34(10,11)12/h17-20,39-40H,13-16H2,1-12H3,(H,35,37)(H,36,38)

> <PUBCHEM_IUPAC_INCHIKEY>
HCILJBJJZALOAL-UHFFFAOYSA-N

> <PUBCHEM_XLOGP3_AA>
8.8

> <PUBCHEM_EXACT_MASS>
552.39270814

> <PUBCHEM_MOLECULAR_FORMULA>
C34H52N2O4

> <PUBCHEM_MOLECULAR_WEIGHT>
552.8

> <PUBCHEM_SMILES>
CC(C)(C)C1=CC(=CC(=C1O)C(C)(C)C)CCC(=O)NNC(=O)CCC2=CC(=C(C(=C2)C(C)(C)C)O)C(C)(C)C

> <PUBCHEM_OPENEYE_CAN_SMILES>
CC(C)(C)C1=CC(=CC(=C1O)C(C)(C)C)CCC(=O)NNC(=O)CCC2=CC(=C(C(=C2)C(C)(C)C)O)C(C)(C)C

> <PUBCHEM_OPENEYE_ISO_SMILES>
CC(C)(C)C1=CC(=CC(=C1O)C(C)(C)C)CCC(=O)NNC(=O)CCC2=CC(=C(C(=C2)C(C)(C)C)O)C(C)(C)C

> <PUBCHEM_CACTVS_TPSA>
98.7

> <PUBCHEM_MONOISOTOPIC_WEIGHT>
552.39270814

> <PUBCHEM_TOTAL_CHARGE>
0

> <PUBCHEM_HEAVY_ATOM_COUNT>
40

> <PUBCHEM_ATOM_DEF_STEREO_COUNT>
0

> <PUBCHEM_ATOM_UDEF_STEREO_COUNT>
0

> <PUBCHEM_BOND_DEF_STEREO_COUNT>
0

> <PUBCHEM_BOND_UDEF_STEREO_COUNT>
0

> <PUBCHEM_ISOTOPIC_ATOM_COUNT>
0

> <PUBCHEM_COMPONENT_COUNT>
1

> <PUBCHEM_CACTVS_TAUTO_COUNT>
-1

> <PUBCHEM_COORDINATE_TYPE>
1
5
255

> <PUBCHEM_BONDANNOTATIONS>
11  15  8
11  19  8
12  16  8
12  20  8
13  15  8
13  21  8
14  16  8
14  22  8
17  19  8
17  21  8
18  20  8
18  22  8

$$$$
