62531
  -OEChem-04042505422D

 40 42  0     0  0  0  0  0  0999 V2000
    2.0000    1.4330    0.0000 Cl  0  0  0  0  0  0  0  0  0  0  0  0
    7.1279   -1.2990    0.0000 O   0  0  0  0  0  0  0  0  0  0  0  0
    6.1279    0.4330    0.0000 N   0  0  0  0  0  0  0  0  0  0  0  0
    5.5443    1.2377    0.0000 N   0  0  0  0  0  0  0  0  0  0  0  0
    5.5443   -0.3717    0.0000 N   0  0  0  0  0  0  0  0  0  0  0  0
    9.1279   -1.2990    0.0000 C   0  0  0  0  0  0  0  0  0  0  0  0
    8.6279   -0.4330    0.0000 C   0  0  0  0  0  0  0  0  0  0  0  0
    9.6279   -2.1651    0.0000 C   0  0  0  0  0  0  0  0  0  0  0  0
    9.9939   -0.7990    0.0000 C   0  0  0  0  0  0  0  0  0  0  0  0
    8.2619   -1.7990    0.0000 C   0  0  0  0  0  0  0  0  0  0  0  0
    7.6279   -0.4330    0.0000 C   0  0  0  0  0  0  0  0  0  0  0  0
    9.1279    0.4330    0.0000 C   0  0  0  0  0  0  0  0  0  0  0  0
    7.1279    0.4330    0.0000 C   0  0  0  0  0  0  0  0  0  0  0  0
    8.6279    1.2990    0.0000 C   0  0  0  0  0  0  0  0  0  0  0  0
    7.6279    1.2990    0.0000 C   0  0  0  0  0  0  0  0  0  0  0  0
    9.1279    2.1651    0.0000 C   0  0  0  0  0  0  0  0  0  0  0  0
    4.5981    0.9330    0.0000 C   0  0  0  0  0  0  0  0  0  0  0  0
    4.5981   -0.0670    0.0000 C   0  0  0  0  0  0  0  0  0  0  0  0
    3.7320    1.4330    0.0000 C   0  0  0  0  0  0  0  0  0  0  0  0
    3.7320   -0.5670    0.0000 C   0  0  0  0  0  0  0  0  0  0  0  0
    2.8660    0.9330    0.0000 C   0  0  0  0  0  0  0  0  0  0  0  0
    2.8660   -0.0670    0.0000 C   0  0  0  0  0  0  0  0  0  0  0  0
    9.0910   -2.4751    0.0000 H   0  0  0  0  0  0  0  0  0  0  0  0
    9.9379   -2.7020    0.0000 H   0  0  0  0  0  0  0  0  0  0  0  0
   10.1648   -1.8551    0.0000 H   0  0  0  0  0  0  0  0  0  0  0  0
   10.3039   -1.3360    0.0000 H   0  0  0  0  0  0  0  0  0  0  0  0
   10.5309   -0.4890    0.0000 H   0  0  0  0  0  0  0  0  0  0  0  0
    9.6839   -0.2621    0.0000 H   0  0  0  0  0  0  0  0  0  0  0  0
    7.9519   -1.2621    0.0000 H   0  0  0  0  0  0  0  0  0  0  0  0
    7.7249   -2.1090    0.0000 H   0  0  0  0  0  0  0  0  0  0  0  0
    8.5719   -2.3360    0.0000 H   0  0  0  0  0  0  0  0  0  0  0  0
    9.7479    0.4330    0.0000 H   0  0  0  0  0  0  0  0  0  0  0  0
    7.3179    1.8360    0.0000 H   0  0  0  0  0  0  0  0  0  0  0  0
    9.6648    1.8551    0.0000 H   0  0  0  0  0  0  0  0  0  0  0  0
    9.4379    2.7020    0.0000 H   0  0  0  0  0  0  0  0  0  0  0  0
    8.5910    2.4751    0.0000 H   0  0  0  0  0  0  0  0  0  0  0  0
    6.5079   -1.2990    0.0000 H   0  0  0  0  0  0  0  0  0  0  0  0
    3.7320    2.0530    0.0000 H   0  0  0  0  0  0  0  0  0  0  0  0
    3.7320   -1.1870    0.0000 H   0  0  0  0  0  0  0  0  0  0  0  0
    2.3291   -0.3770    0.0000 H   0  0  0  0  0  0  0  0  0  0  0  0
  1 21  1  0  0  0  0
  2 11  1  0  0  0  0
  2 37  1  0  0  0  0
  3  4  1  0  0  0  0
  3  5  1  0  0  0  0
  3 13  1  0  0  0  0
  4 17  2  0  0  0  0
  5 18  2  0  0  0  0
  6  7  1  0  0  0  0
  6  8  1  0  0  0  0
  6  9  1  0  0  0  0
  6 10  1  0  0  0  0
  7 11  2  0  0  0  0
  7 12  1  0  0  0  0
  8 23  1  0  0  0  0
  8 24  1  0  0  0  0
  8 25  1  0  0  0  0
  9 26  1  0  0  0  0
  9 27  1  0  0  0  0
  9 28  1  0  0  0  0
 10 29  1  0  0  0  0
 10 30  1  0  0  0  0
 10 31  1  0  0  0  0
 11 13  1  0  0  0  0
 12 14  2  0  0  0  0
 12 32  1  0  0  0  0
 13 15  2  0  0  0  0
 14 15  1  0  0  0  0
 14 16  1  0  0  0  0
 15 33  1  0  0  0  0
 16 34  1  0  0  0  0
 16 35  1  0  0  0  0
 16 36  1  0  0  0  0
 17 18  1  0  0  0  0
 17 19  1  0  0  0  0
 18 20  1  0  0  0  0
 19 21  2  0  0  0  0
 19 38  1  0  0  0  0
 20 22  2  0  0  0  0
 20 39  1  0  0  0  0
 21 22  1  0  0  0  0
 22 40  1  0  0  0  0
M  END
> <PUBCHEM_COMPOUND_CID>
62531

> <PUBCHEM_COMPOUND_CANONICALIZED>
1

> <PUBCHEM_CACTVS_COMPLEXITY>
400

> <PUBCHEM_CACTVS_HBOND_ACCEPTOR>
3

> <PUBCHEM_CACTVS_HBOND_DONOR>
1

> <PUBCHEM_CACTVS_ROTATABLE_BOND>
2

> <PUBCHEM_CACTVS_SUBSKEYS>
AAADceB7IAAEAAAAAAAAAAAAAAAAAWAAAAAwYAAAAAAAAFgB9AAAHgIICAAADg6BniAyxrAAAgCiAyRiQACSBAQgNwAYmCA1fpgKZqKTk5OAcABkyBEI2AeQwOAPoABCQAIIECBAAISABBAgQAAAAAAAAA==

> <PUBCHEM_IUPAC_OPENEYE_NAME>
2-tert-butyl-6-(5-chlorobenzotriazol-2-yl)-4-methyl-phenol

> <PUBCHEM_IUPAC_CAS_NAME>
2-tert-butyl-6-(5-chloro-2-benzotriazolyl)-4-methylphenol

> <PUBCHEM_IUPAC_NAME_MARKUP>
2-<I>tert</I>-butyl-6-(5-chlorobenzotriazol-2-yl)-4-methylphenol

> <PUBCHEM_IUPAC_NAME>
2-tert-butyl-6-(5-chlorobenzotriazol-2-yl)-4-methylphenol

> <PUBCHEM_IUPAC_SYSTEMATIC_NAME>
2-tert-butyl-6-(5-chloranylbenzotriazol-2-yl)-4-methyl-phenol

> <PUBCHEM_IUPAC_TRADITIONAL_NAME>
2-tert-butyl-6-(5-chlorobenzotriazol-2-yl)-4-methyl-phenol

> <PUBCHEM_IUPAC_INCHI>
InChI=1S/C17H18ClN3O/c1-10-7-12(17(2,3)4)16(22)15(8-10)21-19-13-6-5-11(18)9-14(13)20-21/h5-9,22H,1-4H3

> <PUBCHEM_IUPAC_INCHIKEY>
OCWYEMOEOGEQAN-UHFFFAOYSA-N

> <PUBCHEM_XLOGP3_AA>
5.6

> <PUBCHEM_EXACT_MASS>
315.1138399

> <PUBCHEM_MOLECULAR_FORMULA>
C17H18ClN3O

> <PUBCHEM_MOLECULAR_WEIGHT>
315.8

> <PUBCHEM_SMILES>
CC1=CC(=C(C(=C1)N2N=C3C=CC(=CC3=N2)Cl)O)C(C)(C)C

> <PUBCHEM_OPENEYE_CAN_SMILES>
CC1=CC(=C(C(=C1)N2N=C3C=CC(=CC3=N2)Cl)O)C(C)(C)C

> <PUBCHEM_OPENEYE_ISO_SMILES>
CC1=CC(=C(C(=C1)N2N=C3C=CC(=CC3=N2)Cl)O)C(C)(C)C

> <PUBCHEM_CACTVS_TPSA>
50.9

> <PUBCHEM_MONOISOTOPIC_WEIGHT>
315.1138399

> <PUBCHEM_TOTAL_CHARGE>
0

> <PUBCHEM_HEAVY_ATOM_COUNT>
22

> <PUBCHEM_ATOM_DEF_STEREO_COUNT>
0

> <PUBCHEM_ATOM_UDEF_STEREO_COUNT>
0

> <PUBCHEM_BOND_DEF_STEREO_COUNT>
0

> <PUBCHEM_BOND_UDEF_STEREO_COUNT>
0

> <PUBCHEM_ISOTOPIC_ATOM_COUNT>
0

> <PUBCHEM_COMPONENT_COUNT>
1

> <PUBCHEM_CACTVS_TAUTO_COUNT>
-1

> <PUBCHEM_COORDINATE_TYPE>
1
5
255

> <PUBCHEM_BONDANNOTATIONS>
11  13  8
12  14  8
13  15  8
14  15  8
17  18  8
17  19  8
18  20  8
19  21  8
20  22  8
21  22  8
3  4  8
3  5  8
4  17  8
5  18  8
7  11  8
7  12  8

$$$$
