6436863
  -OEChem-04042505342D

115114  0     1  0  0  0  0  0999 V2000
   16.7224    0.2500    0.0000 O   0  0  0  0  0  0  0  0  0  0  0  0
   14.1244   -0.2500    0.0000 O   0  0  0  0  0  0  0  0  0  0  0  0
   17.5885   -1.2500    0.0000 O   0  0  0  0  0  0  0  0  0  0  0  0
   13.2583    1.2500    0.0000 O   0  0  0  0  0  0  0  0  0  0  0  0
   21.0526   -0.2500    0.0000 C   0  0  0  0  0  0  0  0  0  0  0  0
   21.9186    0.2500    0.0000 C   0  0  0  0  0  0  0  0  0  0  0  0
   27.1147    3.2500    0.0000 C   0  0  0  0  0  0  0  0  0  0  0  0
    9.7942    0.2500    0.0000 C   0  0  0  0  0  0  0  0  0  0  0  0
    3.7320   -3.2500    0.0000 C   0  0  0  0  0  0  0  0  0  0  0  0
   26.2487    2.7500    0.0000 C   0  0  0  0  0  0  0  0  0  0  0  0
    8.9282   -0.2500    0.0000 C   0  0  0  0  0  0  0  0  0  0  0  0
    4.5981   -2.7500    0.0000 C   0  0  0  0  0  0  0  0  0  0  0  0
   20.1865    0.2500    0.0000 C   0  0  0  0  0  0  0  0  0  0  0  0
   22.7846   -0.2500    0.0000 C   0  0  0  0  0  0  0  0  0  0  0  0
   27.1147    4.2500    0.0000 C   0  0  0  0  0  0  0  0  0  0  0  0
    3.7320   -4.2500    0.0000 C   0  0  0  0  0  0  0  0  0  0  0  0
   10.6603   -0.2500    0.0000 C   0  0  0  0  0  0  0  0  0  0  0  0
   26.2487    1.7500    0.0000 C   0  0  0  0  0  0  0  0  0  0  0  0
    8.0622    0.2500    0.0000 C   0  0  0  0  0  0  0  0  0  0  0  0
    4.5981   -1.7500    0.0000 C   0  0  0  0  0  0  0  0  0  0  0  0
   19.3205   -0.2500    0.0000 C   0  0  0  0  0  0  0  0  0  0  0  0
   27.9808    4.7500    0.0000 C   0  0  0  0  0  0  0  0  0  0  0  0
   23.6506    0.2500    0.0000 C   0  0  0  0  0  0  0  0  0  0  0  0
    2.8660   -4.7500    0.0000 C   0  0  0  0  0  0  0  0  0  0  0  0
   11.5263    0.2500    0.0000 C   0  0  0  0  0  0  0  0  0  0  0  0
   25.3827    1.2500    0.0000 C   0  0  0  0  0  0  0  0  0  0  0  0
    7.1962   -0.2500    0.0000 C   0  0  0  0  0  0  0  0  0  0  0  0
    5.4641   -1.2500    0.0000 C   0  0  0  0  0  0  0  0  0  0  0  0
   18.4545    0.2500    0.0000 C   0  0  0  0  0  0  0  0  0  0  0  0
   27.9808    5.7500    0.0000 C   0  0  0  0  0  0  0  0  0  0  0  0
    2.8660   -5.7500    0.0000 C   0  0  0  0  0  0  0  0  0  0  0  0
   24.5167   -0.2500    0.0000 C   0  0  0  0  0  0  0  0  0  0  0  0
   25.3827    0.2500    0.0000 C   0  0  0  0  0  0  0  0  0  0  0  0
   12.3923   -0.2500    0.0000 C   0  0  0  0  0  0  0  0  0  0  0  0
    6.3301    0.2500    0.0000 C   0  0  0  0  0  0  0  0  0  0  0  0
    5.4641   -0.2500    0.0000 C   0  0  0  0  0  0  0  0  0  0  0  0
   17.5885   -0.2500    0.0000 C   0  0  0  0  0  0  0  0  0  0  0  0
   28.8468    6.2500    0.0000 C   0  0  0  0  0  0  0  0  0  0  0  0
    2.0000   -6.2500    0.0000 C   0  0  0  0  0  0  0  0  0  0  0  0
   13.2583    0.2500    0.0000 C   0  0  0  0  0  0  0  0  0  0  0  0
   15.8564   -0.2500    0.0000 C   0  0  3  0  0  0  0  0  0  0  0  0
   14.9904    0.2500    0.0000 C   0  0  0  0  0  0  0  0  0  0  0  0
   15.8564   -1.2500    0.0000 C   0  0  0  0  0  0  0  0  0  0  0  0
   20.6540   -0.7249    0.0000 H   0  0  0  0  0  0  0  0  0  0  0  0
   21.4511   -0.7249    0.0000 H   0  0  0  0  0  0  0  0  0  0  0  0
   22.3171    0.7249    0.0000 H   0  0  0  0  0  0  0  0  0  0  0  0
   21.5201    0.7249    0.0000 H   0  0  0  0  0  0  0  0  0  0  0  0
   27.3268    2.6674    0.0000 H   0  0  0  0  0  0  0  0  0  0  0  0
   27.7253    3.3577    0.0000 H   0  0  0  0  0  0  0  0  0  0  0  0
   10.1928    0.7249    0.0000 H   0  0  0  0  0  0  0  0  0  0  0  0
    9.3957    0.7249    0.0000 H   0  0  0  0  0  0  0  0  0  0  0  0
    8.5297   -0.7249    0.0000 H   0  0  0  0  0  0  0  0  0  0  0  0
    9.3267   -0.7249    0.0000 H   0  0  0  0  0  0  0  0  0  0  0  0
    3.5200   -2.6674    0.0000 H   0  0  0  0  0  0  0  0  0  0  0  0
    3.1215   -3.3577    0.0000 H   0  0  0  0  0  0  0  0  0  0  0  0
   26.0367    3.3326    0.0000 H   0  0  0  0  0  0  0  0  0  0  0  0
   25.6381    2.6423    0.0000 H   0  0  0  0  0  0  0  0  0  0  0  0
    4.8101   -3.3326    0.0000 H   0  0  0  0  0  0  0  0  0  0  0  0
    5.2087   -2.6423    0.0000 H   0  0  0  0  0  0  0  0  0  0  0  0
   20.5851    0.7249    0.0000 H   0  0  0  0  0  0  0  0  0  0  0  0
   19.7880    0.7249    0.0000 H   0  0  0  0  0  0  0  0  0  0  0  0
   22.3861   -0.7249    0.0000 H   0  0  0  0  0  0  0  0  0  0  0  0
   23.1831   -0.7249    0.0000 H   0  0  0  0  0  0  0  0  0  0  0  0
   26.9027    4.8326    0.0000 H   0  0  0  0  0  0  0  0  0  0  0  0
   26.5042    4.1423    0.0000 H   0  0  0  0  0  0  0  0  0  0  0  0
    3.9441   -4.8326    0.0000 H   0  0  0  0  0  0  0  0  0  0  0  0
    4.3426   -4.1423    0.0000 H   0  0  0  0  0  0  0  0  0  0  0  0
   10.2617   -0.7249    0.0000 H   0  0  0  0  0  0  0  0  0  0  0  0
   11.0588   -0.7249    0.0000 H   0  0  0  0  0  0  0  0  0  0  0  0
   26.4608    1.1674    0.0000 H   0  0  0  0  0  0  0  0  0  0  0  0
   26.8593    1.8577    0.0000 H   0  0  0  0  0  0  0  0  0  0  0  0
    8.4607    0.7249    0.0000 H   0  0  0  0  0  0  0  0  0  0  0  0
    7.6636    0.7249    0.0000 H   0  0  0  0  0  0  0  0  0  0  0  0
    4.3860   -1.1674    0.0000 H   0  0  0  0  0  0  0  0  0  0  0  0
    3.9875   -1.8577    0.0000 H   0  0  0  0  0  0  0  0  0  0  0  0
   18.9220   -0.7249    0.0000 H   0  0  0  0  0  0  0  0  0  0  0  0
   19.7190   -0.7249    0.0000 H   0  0  0  0  0  0  0  0  0  0  0  0
   28.1928    4.1674    0.0000 H   0  0  0  0  0  0  0  0  0  0  0  0
   28.5913    4.8577    0.0000 H   0  0  0  0  0  0  0  0  0  0  0  0
   24.0492    0.7249    0.0000 H   0  0  0  0  0  0  0  0  0  0  0  0
   23.2521    0.7249    0.0000 H   0  0  0  0  0  0  0  0  0  0  0  0
    2.6540   -4.1674    0.0000 H   0  0  0  0  0  0  0  0  0  0  0  0
    2.2554   -4.8577    0.0000 H   0  0  0  0  0  0  0  0  0  0  0  0
   11.9248    0.7249    0.0000 H   0  0  0  0  0  0  0  0  0  0  0  0
   11.1278    0.7249    0.0000 H   0  0  0  0  0  0  0  0  0  0  0  0
   25.1706    1.8326    0.0000 H   0  0  0  0  0  0  0  0  0  0  0  0
   24.7721    1.1423    0.0000 H   0  0  0  0  0  0  0  0  0  0  0  0
    6.7976   -0.7249    0.0000 H   0  0  0  0  0  0  0  0  0  0  0  0
    7.5947   -0.7249    0.0000 H   0  0  0  0  0  0  0  0  0  0  0  0
    5.6762   -1.8326    0.0000 H   0  0  0  0  0  0  0  0  0  0  0  0
    6.0747   -1.1423    0.0000 H   0  0  0  0  0  0  0  0  0  0  0  0
   18.8530    0.7249    0.0000 H   0  0  0  0  0  0  0  0  0  0  0  0
   18.0560    0.7249    0.0000 H   0  0  0  0  0  0  0  0  0  0  0  0
   27.7687    6.3326    0.0000 H   0  0  0  0  0  0  0  0  0  0  0  0
   27.3702    5.6423    0.0000 H   0  0  0  0  0  0  0  0  0  0  0  0
    3.0781   -6.3326    0.0000 H   0  0  0  0  0  0  0  0  0  0  0  0
    3.4766   -5.6423    0.0000 H   0  0  0  0  0  0  0  0  0  0  0  0
   24.5167   -0.8700    0.0000 H   0  0  0  0  0  0  0  0  0  0  0  0
   11.9938   -0.7249    0.0000 H   0  0  0  0  0  0  0  0  0  0  0  0
   12.7908   -0.7249    0.0000 H   0  0  0  0  0  0  0  0  0  0  0  0
   25.9196   -0.0600    0.0000 H   0  0  0  0  0  0  0  0  0  0  0  0
    6.3301    0.8700    0.0000 H   0  0  0  0  0  0  0  0  0  0  0  0
    4.9272    0.0600    0.0000 H   0  0  0  0  0  0  0  0  0  0  0  0
   29.1568    5.7131    0.0000 H   0  0  0  0  0  0  0  0  0  0  0  0
   29.3837    6.5600    0.0000 H   0  0  0  0  0  0  0  0  0  0  0  0
   28.5368    6.7869    0.0000 H   0  0  0  0  0  0  0  0  0  0  0  0
    1.6900   -5.7131    0.0000 H   0  0  0  0  0  0  0  0  0  0  0  0
    1.4631   -6.5600    0.0000 H   0  0  0  0  0  0  0  0  0  0  0  0
    2.3100   -6.7869    0.0000 H   0  0  0  0  0  0  0  0  0  0  0  0
   16.3933   -0.5600    0.0000 H   0  0  0  0  0  0  0  0  0  0  0  0
   15.3889    0.7249    0.0000 H   0  0  0  0  0  0  0  0  0  0  0  0
   14.5919    0.7249    0.0000 H   0  0  0  0  0  0  0  0  0  0  0  0
   15.2364   -1.2500    0.0000 H   0  0  0  0  0  0  0  0  0  0  0  0
   15.8564   -1.8700    0.0000 H   0  0  0  0  0  0  0  0  0  0  0  0
   16.4764   -1.2500    0.0000 H   0  0  0  0  0  0  0  0  0  0  0  0
  1 37  1  0  0  0  0
  1 41  1  0  0  0  0
  2 40  1  0  0  0  0
  2 42  1  0  0  0  0
  3 37  2  0  0  0  0
  4 40  2  0  0  0  0
  5  6  1  0  0  0  0
  5 13  1  0  0  0  0
  5 44  1  0  0  0  0
  5 45  1  0  0  0  0
  6 14  1  0  0  0  0
  6 46  1  0  0  0  0
  6 47  1  0  0  0  0
  7 10  1  0  0  0  0
  7 15  1  0  0  0  0
  7 48  1  0  0  0  0
  7 49  1  0  0  0  0
  8 11  1  0  0  0  0
  8 17  1  0  0  0  0
  8 50  1  0  0  0  0
  8 51  1  0  0  0  0
  9 12  1  0  0  0  0
  9 16  1  0  0  0  0
  9 54  1  0  0  0  0
  9 55  1  0  0  0  0
 10 18  1  0  0  0  0
 10 56  1  0  0  0  0
 10 57  1  0  0  0  0
 11 19  1  0  0  0  0
 11 52  1  0  0  0  0
 11 53  1  0  0  0  0
 12 20  1  0  0  0  0
 12 58  1  0  0  0  0
 12 59  1  0  0  0  0
 13 21  1  0  0  0  0
 13 60  1  0  0  0  0
 13 61  1  0  0  0  0
 14 23  1  0  0  0  0
 14 62  1  0  0  0  0
 14 63  1  0  0  0  0
 15 22  1  0  0  0  0
 15 64  1  0  0  0  0
 15 65  1  0  0  0  0
 16 24  1  0  0  0  0
 16 66  1  0  0  0  0
 16 67  1  0  0  0  0
 17 25  1  0  0  0  0
 17 68  1  0  0  0  0
 17 69  1  0  0  0  0
 18 26  1  0  0  0  0
 18 70  1  0  0  0  0
 18 71  1  0  0  0  0
 19 27  1  0  0  0  0
 19 72  1  0  0  0  0
 19 73  1  0  0  0  0
 20 28  1  0  0  0  0
 20 74  1  0  0  0  0
 20 75  1  0  0  0  0
 21 29  1  0  0  0  0
 21 76  1  0  0  0  0
 21 77  1  0  0  0  0
 22 30  1  0  0  0  0
 22 78  1  0  0  0  0
 22 79  1  0  0  0  0
 23 32  1  0  0  0  0
 23 80  1  0  0  0  0
 23 81  1  0  0  0  0
 24 31  1  0  0  0  0
 24 82  1  0  0  0  0
 24 83  1  0  0  0  0
 25 34  1  0  0  0  0
 25 84  1  0  0  0  0
 25 85  1  0  0  0  0
 26 33  1  0  0  0  0
 26 86  1  0  0  0  0
 26 87  1  0  0  0  0
 27 35  1  0  0  0  0
 27 88  1  0  0  0  0
 27 89  1  0  0  0  0
 28 36  1  0  0  0  0
 28 90  1  0  0  0  0
 28 91  1  0  0  0  0
 29 37  1  0  0  0  0
 29 92  1  0  0  0  0
 29 93  1  0  0  0  0
 30 38  1  0  0  0  0
 30 94  1  0  0  0  0
 30 95  1  0  0  0  0
 31 39  1  0  0  0  0
 31 96  1  0  0  0  0
 31 97  1  0  0  0  0
 32 33  2  0  0  0  0
 32 98  1  0  0  0  0
 33101  1  0  0  0  0
 34 40  1  0  0  0  0
 34 99  1  0  0  0  0
 34100  1  0  0  0  0
 35 36  2  0  0  0  0
 35102  1  0  0  0  0
 36103  1  0  0  0  0
 38104  1  0  0  0  0
 38105  1  0  0  0  0
 38106  1  0  0  0  0
 39107  1  0  0  0  0
 39108  1  0  0  0  0
 39109  1  0  0  0  0
 41 42  1  0  0  0  0
 41 43  1  0  0  0  0
 41110  1  0  0  0  0
 42111  1  0  0  0  0
 42112  1  0  0  0  0
 43113  1  0  0  0  0
 43114  1  0  0  0  0
 43115  1  0  0  0  0
M  END
> <PUBCHEM_COMPOUND_CID>
6436863

> <PUBCHEM_COMPOUND_CANONICALIZED>
1

> <PUBCHEM_CACTVS_COMPLEXITY>
654

> <PUBCHEM_CACTVS_HBOND_ACCEPTOR>
4

> <PUBCHEM_CACTVS_HBOND_DONOR>
0

> <PUBCHEM_CACTVS_ROTATABLE_BOND>
35

> <PUBCHEM_CACTVS_SUBSKEYS>
AAADcfB8OAAAAAAAAAAAAAAAAAAAAAAAAAAAAAAAAAAAAAAAAAAAGgAAAAAACBSggAICCAAABACIACDSCAAAAAAgAAAICAEAAAgBABIAAQACAAAEgAAKAAOIyKCAAAAAAAAAAAAAAAAAAAAAAAAAAAAAAA==

> <PUBCHEM_IUPAC_OPENEYE_NAME>
2-[(Z)-octadec-9-enoyl]oxypropyl (Z)-octadec-9-enoate

> <PUBCHEM_IUPAC_CAS_NAME>
(Z)-9-octadecenoic acid 2-[(Z)-1-oxooctadec-9-enoxy]propyl ester

> <PUBCHEM_IUPAC_NAME_MARKUP>
2-[(<I>Z</I>)-octadec-9-enoyl]oxypropyl (<I>Z</I>)-octadec-9-enoate

> <PUBCHEM_IUPAC_NAME>
2-[(Z)-octadec-9-enoyl]oxypropyl (Z)-octadec-9-enoate

> <PUBCHEM_IUPAC_SYSTEMATIC_NAME>
2-[(Z)-octadec-9-enoyl]oxypropyl (Z)-octadec-9-enoate

> <PUBCHEM_IUPAC_TRADITIONAL_NAME>
(Z)-octadec-9-enoic acid 2-[(Z)-octadec-9-enoyl]oxypropyl ester

> <PUBCHEM_IUPAC_INCHI>
InChI=1S/C39H72O4/c1-4-6-8-10-12-14-16-18-20-22-24-26-28-30-32-34-38(40)42-36-37(3)43-39(41)35-33-31-29-27-25-23-21-19-17-15-13-11-9-7-5-2/h18-21,37H,4-17,22-36H2,1-3H3/b20-18-,21-19-

> <PUBCHEM_IUPAC_INCHIKEY>
UMHYVXGZRGOICM-AUYXYSRISA-N

> <PUBCHEM_XLOGP3_AA>
15.4

> <PUBCHEM_EXACT_MASS>
604.54306077

> <PUBCHEM_MOLECULAR_FORMULA>
C39H72O4

> <PUBCHEM_MOLECULAR_WEIGHT>
605.0

> <PUBCHEM_SMILES>
CCCCCCCC/C=C\CCCCCCCC(=O)OCC(C)OC(=O)CCCCCCC/C=C\CCCCCCCC

> <PUBCHEM_OPENEYE_CAN_SMILES>
CCCCCCCCC=CCCCCCCCC(=O)OCC(C)OC(=O)CCCCCCCC=CCCCCCCCC

> <PUBCHEM_OPENEYE_ISO_SMILES>
CCCCCCCC/C=C\CCCCCCCC(=O)OCC(C)OC(=O)CCCCCCC/C=C\CCCCCCCC

> <PUBCHEM_CACTVS_TPSA>
52.6

> <PUBCHEM_MONOISOTOPIC_WEIGHT>
604.54306077

> <PUBCHEM_TOTAL_CHARGE>
0

> <PUBCHEM_HEAVY_ATOM_COUNT>
43

> <PUBCHEM_ATOM_DEF_STEREO_COUNT>
0

> <PUBCHEM_ATOM_UDEF_STEREO_COUNT>
1

> <PUBCHEM_BOND_DEF_STEREO_COUNT>
2

> <PUBCHEM_BOND_UDEF_STEREO_COUNT>
0

> <PUBCHEM_ISOTOPIC_ATOM_COUNT>
0

> <PUBCHEM_COMPONENT_COUNT>
1

> <PUBCHEM_CACTVS_TAUTO_COUNT>
-1

> <PUBCHEM_COORDINATE_TYPE>
1
5
255

> <PUBCHEM_BONDANNOTATIONS>
41  43  3

$$$$
