6436379
  -OEChem-04042512262D

 44 40  0     0  0  0  0  0  0999 V2000
    0.0000    5.5598    0.0000 Rh  0  0  0  0  0  0  0  0  0  0  0  0
    2.5000    5.5598    0.0000 Rh  0  0  0  0  0  0  0  0  0  0  0  0
    6.5560    0.0000    0.0000 Cl  0  5  0  0  0  0  0  0  0  0  0  0
   10.6120    5.5598    0.0000 Cl  0  5  0  0  0  0  0  0  0  0  0  0
    8.0131    4.7799    0.0000 C   0  0  0  0  0  0  0  0  0  0  0  0
    8.0131    3.7799    0.0000 C   0  0  0  0  0  0  0  0  0  0  0  0
    5.5989    4.7799    0.0000 C   0  0  0  0  0  0  0  0  0  0  0  0
    5.5989    3.7799    0.0000 C   0  0  0  0  0  0  0  0  0  0  0  0
    8.0131   10.3397    0.0000 C   0  0  0  0  0  0  0  0  0  0  0  0
    8.0131    9.3397    0.0000 C   0  0  0  0  0  0  0  0  0  0  0  0
    5.5989   10.3397    0.0000 C   0  0  0  0  0  0  0  0  0  0  0  0
    5.5989    9.3397    0.0000 C   0  0  0  0  0  0  0  0  0  0  0  0
    7.3060    5.4870    0.0000 C   0  0  0  0  0  0  0  0  0  0  0  0
    7.3060    3.0728    0.0000 C   0  0  0  0  0  0  0  0  0  0  0  0
    6.3060    5.4870    0.0000 C   0  0  0  0  0  0  0  0  0  0  0  0
    6.3060    3.0728    0.0000 C   0  0  0  0  0  0  0  0  0  0  0  0
    7.3060   11.0468    0.0000 C   0  0  0  0  0  0  0  0  0  0  0  0
    7.3060    8.6326    0.0000 C   0  0  0  0  0  0  0  0  0  0  0  0
    6.3060   11.0468    0.0000 C   0  0  0  0  0  0  0  0  0  0  0  0
    6.3060    8.6326    0.0000 C   0  0  0  0  0  0  0  0  0  0  0  0
    8.6120    4.6194    0.0000 H   0  0  0  0  0  0  0  0  0  0  0  0
    8.3231    5.3168    0.0000 H   0  0  0  0  0  0  0  0  0  0  0  0
    8.3231    3.2430    0.0000 H   0  0  0  0  0  0  0  0  0  0  0  0
    8.6120    3.9404    0.0000 H   0  0  0  0  0  0  0  0  0  0  0  0
    5.2889    5.3168    0.0000 H   0  0  0  0  0  0  0  0  0  0  0  0
    5.0000    4.6194    0.0000 H   0  0  0  0  0  0  0  0  0  0  0  0
    5.0000    3.9404    0.0000 H   0  0  0  0  0  0  0  0  0  0  0  0
    5.2889    3.2430    0.0000 H   0  0  0  0  0  0  0  0  0  0  0  0
    8.6120   10.1793    0.0000 H   0  0  0  0  0  0  0  0  0  0  0  0
    8.3231   10.8767    0.0000 H   0  0  0  0  0  0  0  0  0  0  0  0
    8.3231    8.8028    0.0000 H   0  0  0  0  0  0  0  0  0  0  0  0
    8.6120    9.5002    0.0000 H   0  0  0  0  0  0  0  0  0  0  0  0
    5.2889   10.8767    0.0000 H   0  0  0  0  0  0  0  0  0  0  0  0
    5.0000   10.1793    0.0000 H   0  0  0  0  0  0  0  0  0  0  0  0
    5.0000    9.5002    0.0000 H   0  0  0  0  0  0  0  0  0  0  0  0
    5.2889    8.8028    0.0000 H   0  0  0  0  0  0  0  0  0  0  0  0
    7.5432    6.0598    0.0000 H   0  0  0  0  0  0  0  0  0  0  0  0
    7.5432    2.5000    0.0000 H   0  0  0  0  0  0  0  0  0  0  0  0
    6.0687    6.0598    0.0000 H   0  0  0  0  0  0  0  0  0  0  0  0
    6.0687    2.5000    0.0000 H   0  0  0  0  0  0  0  0  0  0  0  0
    7.5432   11.6196    0.0000 H   0  0  0  0  0  0  0  0  0  0  0  0
    7.5432    8.0598    0.0000 H   0  0  0  0  0  0  0  0  0  0  0  0
    6.0687   11.6196    0.0000 H   0  0  0  0  0  0  0  0  0  0  0  0
    6.0687    8.0598    0.0000 H   0  0  0  0  0  0  0  0  0  0  0  0
  5  6  1  0  0  0  0
  5 13  1  0  0  0  0
  5 21  1  0  0  0  0
  5 22  1  0  0  0  0
  6 14  1  0  0  0  0
  6 23  1  0  0  0  0
  6 24  1  0  0  0  0
  7  8  1  0  0  0  0
  7 15  1  0  0  0  0
  7 25  1  0  0  0  0
  7 26  1  0  0  0  0
  8 16  1  0  0  0  0
  8 27  1  0  0  0  0
  8 28  1  0  0  0  0
  9 10  1  0  0  0  0
  9 17  1  0  0  0  0
  9 29  1  0  0  0  0
  9 30  1  0  0  0  0
 10 18  1  0  0  0  0
 10 31  1  0  0  0  0
 10 32  1  0  0  0  0
 11 12  1  0  0  0  0
 11 19  1  0  0  0  0
 11 33  1  0  0  0  0
 11 34  1  0  0  0  0
 12 20  1  0  0  0  0
 12 35  1  0  0  0  0
 12 36  1  0  0  0  0
 13 15  2  0  0  0  0
 13 37  1  0  0  0  0
 14 16  2  0  0  0  0
 14 38  1  0  0  0  0
 15 39  1  0  0  0  0
 16 40  1  0  0  0  0
 17 19  2  0  0  0  0
 17 41  1  0  0  0  0
 18 20  2  0  0  0  0
 18 42  1  0  0  0  0
 19 43  1  0  0  0  0
 20 44  1  0  0  0  0
M  CHG  2   3  -1   4  -1
M  END
> <PUBCHEM_COMPOUND_CID>
6436379

> <PUBCHEM_COMPOUND_CANONICALIZED>
1

> <PUBCHEM_CACTVS_COMPLEXITY>
72.6

> <PUBCHEM_CACTVS_HBOND_ACCEPTOR>
2

> <PUBCHEM_CACTVS_HBOND_DONOR>
0

> <PUBCHEM_CACTVS_ROTATABLE_BOND>
0

> <PUBCHEM_CACTVS_SUBSKEYS>
AAADceB4AAAGAAAAABAAAAAAAAAAAAAAAAAAAAAAAAAQIAAAAAAAGAAAAAAACACAAAAAAAAAAACAACBCAAAAAAAgAAAICAAAAAgAAAAAAQAAAAAAgAAIAAIAAAAAAAAAAAAAAAAAAAAAAAAAAAAAAAAAAA==

> <PUBCHEM_IUPAC_OPENEYE_NAME>
(1Z,5Z)-cycloocta-1,5-diene;rhodium;dichloride

> <PUBCHEM_IUPAC_CAS_NAME>
(1Z,5Z)-cycloocta-1,5-diene;rhodium;dichloride

> <PUBCHEM_IUPAC_NAME_MARKUP>
(1<I>Z</I>,5<I>Z</I>)-cycloocta-1,5-diene;rhodium;dichloride

> <PUBCHEM_IUPAC_NAME>
(1Z,5Z)-cycloocta-1,5-diene;rhodium;dichloride

> <PUBCHEM_IUPAC_SYSTEMATIC_NAME>
(1Z,5Z)-cycloocta-1,5-diene;rhodium;dichloride

> <PUBCHEM_IUPAC_TRADITIONAL_NAME>
(1Z,5Z)-cycloocta-1,5-diene;rhodium;dichloride

> <PUBCHEM_IUPAC_INCHI>
InChI=1S/2C8H12.2ClH.2Rh/c2*1-2-4-6-8-7-5-3-1;;;;/h2*1-2,7-8H,3-6H2;2*1H;;/p-2/b2*2-1-,8-7-;;;;

> <PUBCHEM_IUPAC_INCHIKEY>
PDJQCHVMABBNQW-MIXQCLKLSA-L

> <PUBCHEM_EXACT_MASS>
491.93649

> <PUBCHEM_MOLECULAR_FORMULA>
C16H24Cl2Rh2-2

> <PUBCHEM_MOLECULAR_WEIGHT>
493.1

> <PUBCHEM_SMILES>
C1/C=C\CC/C=C\C1.C1/C=C\CC/C=C\C1.[Cl-].[Cl-].[Rh].[Rh]

> <PUBCHEM_OPENEYE_CAN_SMILES>
C1CC=CCCC=C1.C1CC=CCCC=C1.[Cl-].[Cl-].[Rh].[Rh]

> <PUBCHEM_OPENEYE_ISO_SMILES>
C1/C=C\CC/C=C\C1.C1/C=C\CC/C=C\C1.[Cl-].[Cl-].[Rh].[Rh]

> <PUBCHEM_CACTVS_TPSA>
0

> <PUBCHEM_MONOISOTOPIC_WEIGHT>
491.93649

> <PUBCHEM_TOTAL_CHARGE>
-2

> <PUBCHEM_HEAVY_ATOM_COUNT>
20

> <PUBCHEM_ATOM_DEF_STEREO_COUNT>
0

> <PUBCHEM_ATOM_UDEF_STEREO_COUNT>
0

> <PUBCHEM_BOND_DEF_STEREO_COUNT>
4

> <PUBCHEM_BOND_UDEF_STEREO_COUNT>
0

> <PUBCHEM_ISOTOPIC_ATOM_COUNT>
0

> <PUBCHEM_COMPONENT_COUNT>
6

> <PUBCHEM_CACTVS_TAUTO_COUNT>
-1

> <PUBCHEM_COORDINATE_TYPE>
1
5
255

$$$$
