6436065
  -OEChem-04042506002D

114113  0     0  0  0  0  0  0999 V2000
   13.2583   -1.2500    0.0000 O   0  0  0  0  0  0  0  0  0  0  0  0
   17.5885    1.2500    0.0000 O   0  0  0  0  0  0  0  0  0  0  0  0
   14.1244    0.2500    0.0000 N   0  0  0  0  0  0  0  0  0  0  0  0
   16.7224   -0.2500    0.0000 N   0  0  0  0  0  0  0  0  0  0  0  0
    9.7942   -0.2500    0.0000 C   0  0  0  0  0  0  0  0  0  0  0  0
   21.0526    0.2500    0.0000 C   0  0  0  0  0  0  0  0  0  0  0  0
    8.9282    0.2500    0.0000 C   0  0  0  0  0  0  0  0  0  0  0  0
   21.9186   -0.2500    0.0000 C   0  0  0  0  0  0  0  0  0  0  0  0
   10.6603    0.2500    0.0000 C   0  0  0  0  0  0  0  0  0  0  0  0
   20.1865   -0.2500    0.0000 C   0  0  0  0  0  0  0  0  0  0  0  0
    3.7320    3.2500    0.0000 C   0  0  0  0  0  0  0  0  0  0  0  0
   27.1147   -3.2500    0.0000 C   0  0  0  0  0  0  0  0  0  0  0  0
    4.5981    2.7500    0.0000 C   0  0  0  0  0  0  0  0  0  0  0  0
   26.2487   -2.7500    0.0000 C   0  0  0  0  0  0  0  0  0  0  0  0
    8.0622   -0.2500    0.0000 C   0  0  0  0  0  0  0  0  0  0  0  0
   22.7846    0.2500    0.0000 C   0  0  0  0  0  0  0  0  0  0  0  0
    3.7320    4.2500    0.0000 C   0  0  0  0  0  0  0  0  0  0  0  0
   27.1147   -4.2500    0.0000 C   0  0  0  0  0  0  0  0  0  0  0  0
    4.5981    1.7500    0.0000 C   0  0  0  0  0  0  0  0  0  0  0  0
   26.2487   -1.7500    0.0000 C   0  0  0  0  0  0  0  0  0  0  0  0
   11.5263   -0.2500    0.0000 C   0  0  0  0  0  0  0  0  0  0  0  0
   19.3205    0.2500    0.0000 C   0  0  0  0  0  0  0  0  0  0  0  0
    7.1962    0.2500    0.0000 C   0  0  0  0  0  0  0  0  0  0  0  0
   23.6506   -0.2500    0.0000 C   0  0  0  0  0  0  0  0  0  0  0  0
    2.8660    4.7500    0.0000 C   0  0  0  0  0  0  0  0  0  0  0  0
   27.9808   -4.7500    0.0000 C   0  0  0  0  0  0  0  0  0  0  0  0
    5.4641    1.2500    0.0000 C   0  0  0  0  0  0  0  0  0  0  0  0
   25.3827   -1.2500    0.0000 C   0  0  0  0  0  0  0  0  0  0  0  0
   12.3923    0.2500    0.0000 C   0  0  0  0  0  0  0  0  0  0  0  0
   18.4545   -0.2500    0.0000 C   0  0  0  0  0  0  0  0  0  0  0  0
    6.3301   -0.2500    0.0000 C   0  0  0  0  0  0  0  0  0  0  0  0
   24.5167    0.2500    0.0000 C   0  0  0  0  0  0  0  0  0  0  0  0
    2.8660    5.7500    0.0000 C   0  0  0  0  0  0  0  0  0  0  0  0
   27.9808   -5.7500    0.0000 C   0  0  0  0  0  0  0  0  0  0  0  0
    5.4641    0.2500    0.0000 C   0  0  0  0  0  0  0  0  0  0  0  0
   25.3827   -0.2500    0.0000 C   0  0  0  0  0  0  0  0  0  0  0  0
   13.2583   -0.2500    0.0000 C   0  0  0  0  0  0  0  0  0  0  0  0
   17.5885    0.2500    0.0000 C   0  0  0  0  0  0  0  0  0  0  0  0
   14.9904   -0.2500    0.0000 C   0  0  0  0  0  0  0  0  0  0  0  0
   15.8564    0.2500    0.0000 C   0  0  0  0  0  0  0  0  0  0  0  0
    2.0000    6.2500    0.0000 C   0  0  0  0  0  0  0  0  0  0  0  0
   28.8468   -6.2500    0.0000 C   0  0  0  0  0  0  0  0  0  0  0  0
    9.3957   -0.7249    0.0000 H   0  0  0  0  0  0  0  0  0  0  0  0
   10.1928   -0.7249    0.0000 H   0  0  0  0  0  0  0  0  0  0  0  0
   21.4511    0.7249    0.0000 H   0  0  0  0  0  0  0  0  0  0  0  0
   20.6540    0.7249    0.0000 H   0  0  0  0  0  0  0  0  0  0  0  0
    9.3267    0.7249    0.0000 H   0  0  0  0  0  0  0  0  0  0  0  0
    8.5297    0.7249    0.0000 H   0  0  0  0  0  0  0  0  0  0  0  0
   21.5201   -0.7249    0.0000 H   0  0  0  0  0  0  0  0  0  0  0  0
   22.3171   -0.7249    0.0000 H   0  0  0  0  0  0  0  0  0  0  0  0
   11.0588    0.7249    0.0000 H   0  0  0  0  0  0  0  0  0  0  0  0
   10.2617    0.7249    0.0000 H   0  0  0  0  0  0  0  0  0  0  0  0
   19.7880   -0.7249    0.0000 H   0  0  0  0  0  0  0  0  0  0  0  0
   20.5851   -0.7249    0.0000 H   0  0  0  0  0  0  0  0  0  0  0  0
    3.1215    3.3577    0.0000 H   0  0  0  0  0  0  0  0  0  0  0  0
    3.5200    2.6674    0.0000 H   0  0  0  0  0  0  0  0  0  0  0  0
   27.7253   -3.3577    0.0000 H   0  0  0  0  0  0  0  0  0  0  0  0
   27.3268   -2.6674    0.0000 H   0  0  0  0  0  0  0  0  0  0  0  0
    5.2087    2.6423    0.0000 H   0  0  0  0  0  0  0  0  0  0  0  0
    4.8101    3.3326    0.0000 H   0  0  0  0  0  0  0  0  0  0  0  0
   25.6381   -2.6423    0.0000 H   0  0  0  0  0  0  0  0  0  0  0  0
   26.0367   -3.3326    0.0000 H   0  0  0  0  0  0  0  0  0  0  0  0
    7.6636   -0.7249    0.0000 H   0  0  0  0  0  0  0  0  0  0  0  0
    8.4607   -0.7249    0.0000 H   0  0  0  0  0  0  0  0  0  0  0  0
   23.1831    0.7249    0.0000 H   0  0  0  0  0  0  0  0  0  0  0  0
   22.3861    0.7249    0.0000 H   0  0  0  0  0  0  0  0  0  0  0  0
    4.3426    4.1423    0.0000 H   0  0  0  0  0  0  0  0  0  0  0  0
    3.9441    4.8326    0.0000 H   0  0  0  0  0  0  0  0  0  0  0  0
   26.5042   -4.1423    0.0000 H   0  0  0  0  0  0  0  0  0  0  0  0
   26.9027   -4.8326    0.0000 H   0  0  0  0  0  0  0  0  0  0  0  0
    3.9875    1.8577    0.0000 H   0  0  0  0  0  0  0  0  0  0  0  0
    4.3860    1.1674    0.0000 H   0  0  0  0  0  0  0  0  0  0  0  0
   26.8593   -1.8577    0.0000 H   0  0  0  0  0  0  0  0  0  0  0  0
   26.4608   -1.1674    0.0000 H   0  0  0  0  0  0  0  0  0  0  0  0
   11.1278   -0.7249    0.0000 H   0  0  0  0  0  0  0  0  0  0  0  0
   11.9248   -0.7249    0.0000 H   0  0  0  0  0  0  0  0  0  0  0  0
   19.7190    0.7249    0.0000 H   0  0  0  0  0  0  0  0  0  0  0  0
   18.9220    0.7249    0.0000 H   0  0  0  0  0  0  0  0  0  0  0  0
    7.5947    0.7249    0.0000 H   0  0  0  0  0  0  0  0  0  0  0  0
    6.7976    0.7249    0.0000 H   0  0  0  0  0  0  0  0  0  0  0  0
   23.2521   -0.7249    0.0000 H   0  0  0  0  0  0  0  0  0  0  0  0
   24.0492   -0.7249    0.0000 H   0  0  0  0  0  0  0  0  0  0  0  0
    2.2554    4.8577    0.0000 H   0  0  0  0  0  0  0  0  0  0  0  0
    2.6540    4.1674    0.0000 H   0  0  0  0  0  0  0  0  0  0  0  0
   28.5913   -4.8577    0.0000 H   0  0  0  0  0  0  0  0  0  0  0  0
   28.1928   -4.1674    0.0000 H   0  0  0  0  0  0  0  0  0  0  0  0
    6.0747    1.1423    0.0000 H   0  0  0  0  0  0  0  0  0  0  0  0
    5.6762    1.8326    0.0000 H   0  0  0  0  0  0  0  0  0  0  0  0
   24.7721   -1.1423    0.0000 H   0  0  0  0  0  0  0  0  0  0  0  0
   25.1706   -1.8326    0.0000 H   0  0  0  0  0  0  0  0  0  0  0  0
   12.7908    0.7249    0.0000 H   0  0  0  0  0  0  0  0  0  0  0  0
   11.9938    0.7249    0.0000 H   0  0  0  0  0  0  0  0  0  0  0  0
   18.0560   -0.7249    0.0000 H   0  0  0  0  0  0  0  0  0  0  0  0
   18.8530   -0.7249    0.0000 H   0  0  0  0  0  0  0  0  0  0  0  0
    6.3301   -0.8700    0.0000 H   0  0  0  0  0  0  0  0  0  0  0  0
   24.5167    0.8700    0.0000 H   0  0  0  0  0  0  0  0  0  0  0  0
    3.4766    5.6423    0.0000 H   0  0  0  0  0  0  0  0  0  0  0  0
    3.0781    6.3326    0.0000 H   0  0  0  0  0  0  0  0  0  0  0  0
   27.3702   -5.6423    0.0000 H   0  0  0  0  0  0  0  0  0  0  0  0
   27.7687   -6.3326    0.0000 H   0  0  0  0  0  0  0  0  0  0  0  0
    4.9272   -0.0600    0.0000 H   0  0  0  0  0  0  0  0  0  0  0  0
   25.9196    0.0600    0.0000 H   0  0  0  0  0  0  0  0  0  0  0  0
   14.5919   -0.7249    0.0000 H   0  0  0  0  0  0  0  0  0  0  0  0
   15.3889   -0.7249    0.0000 H   0  0  0  0  0  0  0  0  0  0  0  0
   16.2549    0.7249    0.0000 H   0  0  0  0  0  0  0  0  0  0  0  0
   15.4579    0.7249    0.0000 H   0  0  0  0  0  0  0  0  0  0  0  0
    2.3100    6.7869    0.0000 H   0  0  0  0  0  0  0  0  0  0  0  0
    1.4631    6.5600    0.0000 H   0  0  0  0  0  0  0  0  0  0  0  0
    1.6900    5.7131    0.0000 H   0  0  0  0  0  0  0  0  0  0  0  0
   28.5368   -6.7869    0.0000 H   0  0  0  0  0  0  0  0  0  0  0  0
   29.3837   -6.5600    0.0000 H   0  0  0  0  0  0  0  0  0  0  0  0
   29.1568   -5.7131    0.0000 H   0  0  0  0  0  0  0  0  0  0  0  0
   14.1244    0.8700    0.0000 H   0  0  0  0  0  0  0  0  0  0  0  0
   16.7224   -0.8700    0.0000 H   0  0  0  0  0  0  0  0  0  0  0  0
  1 37  2  0  0  0  0
  2 38  2  0  0  0  0
  3 37  1  0  0  0  0
  3 39  1  0  0  0  0
  3113  1  0  0  0  0
  4 38  1  0  0  0  0
  4 40  1  0  0  0  0
  4114  1  0  0  0  0
  5  7  1  0  0  0  0
  5  9  1  0  0  0  0
  5 43  1  0  0  0  0
  5 44  1  0  0  0  0
  6  8  1  0  0  0  0
  6 10  1  0  0  0  0
  6 45  1  0  0  0  0
  6 46  1  0  0  0  0
  7 15  1  0  0  0  0
  7 47  1  0  0  0  0
  7 48  1  0  0  0  0
  8 16  1  0  0  0  0
  8 49  1  0  0  0  0
  8 50  1  0  0  0  0
  9 21  1  0  0  0  0
  9 51  1  0  0  0  0
  9 52  1  0  0  0  0
 10 22  1  0  0  0  0
 10 53  1  0  0  0  0
 10 54  1  0  0  0  0
 11 13  1  0  0  0  0
 11 17  1  0  0  0  0
 11 55  1  0  0  0  0
 11 56  1  0  0  0  0
 12 14  1  0  0  0  0
 12 18  1  0  0  0  0
 12 57  1  0  0  0  0
 12 58  1  0  0  0  0
 13 19  1  0  0  0  0
 13 59  1  0  0  0  0
 13 60  1  0  0  0  0
 14 20  1  0  0  0  0
 14 61  1  0  0  0  0
 14 62  1  0  0  0  0
 15 23  1  0  0  0  0
 15 63  1  0  0  0  0
 15 64  1  0  0  0  0
 16 24  1  0  0  0  0
 16 65  1  0  0  0  0
 16 66  1  0  0  0  0
 17 25  1  0  0  0  0
 17 67  1  0  0  0  0
 17 68  1  0  0  0  0
 18 26  1  0  0  0  0
 18 69  1  0  0  0  0
 18 70  1  0  0  0  0
 19 27  1  0  0  0  0
 19 71  1  0  0  0  0
 19 72  1  0  0  0  0
 20 28  1  0  0  0  0
 20 73  1  0  0  0  0
 20 74  1  0  0  0  0
 21 29  1  0  0  0  0
 21 75  1  0  0  0  0
 21 76  1  0  0  0  0
 22 30  1  0  0  0  0
 22 77  1  0  0  0  0
 22 78  1  0  0  0  0
 23 31  1  0  0  0  0
 23 79  1  0  0  0  0
 23 80  1  0  0  0  0
 24 32  1  0  0  0  0
 24 81  1  0  0  0  0
 24 82  1  0  0  0  0
 25 33  1  0  0  0  0
 25 83  1  0  0  0  0
 25 84  1  0  0  0  0
 26 34  1  0  0  0  0
 26 85  1  0  0  0  0
 26 86  1  0  0  0  0
 27 35  1  0  0  0  0
 27 87  1  0  0  0  0
 27 88  1  0  0  0  0
 28 36  1  0  0  0  0
 28 89  1  0  0  0  0
 28 90  1  0  0  0  0
 29 37  1  0  0  0  0
 29 91  1  0  0  0  0
 29 92  1  0  0  0  0
 30 38  1  0  0  0  0
 30 93  1  0  0  0  0
 30 94  1  0  0  0  0
 31 35  2  0  0  0  0
 31 95  1  0  0  0  0
 32 36  2  0  0  0  0
 32 96  1  0  0  0  0
 33 41  1  0  0  0  0
 33 97  1  0  0  0  0
 33 98  1  0  0  0  0
 34 42  1  0  0  0  0
 34 99  1  0  0  0  0
 34100  1  0  0  0  0
 35101  1  0  0  0  0
 36102  1  0  0  0  0
 39 40  1  0  0  0  0
 39103  1  0  0  0  0
 39104  1  0  0  0  0
 40105  1  0  0  0  0
 40106  1  0  0  0  0
 41107  1  0  0  0  0
 41108  1  0  0  0  0
 41109  1  0  0  0  0
 42110  1  0  0  0  0
 42111  1  0  0  0  0
 42112  1  0  0  0  0
M  END
> <PUBCHEM_COMPOUND_CID>
6436065

> <PUBCHEM_COMPOUND_CANONICALIZED>
1

> <PUBCHEM_CACTVS_COMPLEXITY>
575

> <PUBCHEM_CACTVS_HBOND_ACCEPTOR>
2

> <PUBCHEM_CACTVS_HBOND_DONOR>
2

> <PUBCHEM_CACTVS_ROTATABLE_BOND>
33

> <PUBCHEM_CACTVS_SUBSKEYS>
AAADcfB/MAAAAAAAAAAAAAAAAAAAAAAAAAAAAAAAAAAAAAAAAAAAHgAQAAAACADBgAQCAALAAACIACFSEAAAAAAgAAAICIEIAAgAQBIAgQAUAAAAlgCIAAMYiICAAAAAAAAAAAAAAAAAAAAAAAAAAAAAAA==

> <PUBCHEM_IUPAC_OPENEYE_NAME>
(Z)-N-[2-[[(Z)-octadec-9-enoyl]amino]ethyl]octadec-9-enamide

> <PUBCHEM_IUPAC_CAS_NAME>
(Z)-N-[2-[[(Z)-1-oxooctadec-9-enyl]amino]ethyl]-9-octadecenamide

> <PUBCHEM_IUPAC_NAME_MARKUP>
(<I>Z</I>)-<I>N</I>-[2-[[(<I>Z</I>)-octadec-9-enoyl]amino]ethyl]octadec-9-enamide

> <PUBCHEM_IUPAC_NAME>
(Z)-N-[2-[[(Z)-octadec-9-enoyl]amino]ethyl]octadec-9-enamide

> <PUBCHEM_IUPAC_SYSTEMATIC_NAME>
(Z)-N-[2-[[(Z)-octadec-9-enoyl]amino]ethyl]octadec-9-enamide

> <PUBCHEM_IUPAC_TRADITIONAL_NAME>
(Z)-N-[2-[[(Z)-octadec-9-enoyl]amino]ethyl]octadec-9-enamide

> <PUBCHEM_IUPAC_INCHI>
InChI=1S/C38H72N2O2/c1-3-5-7-9-11-13-15-17-19-21-23-25-27-29-31-33-37(41)39-35-36-40-38(42)34-32-30-28-26-24-22-20-18-16-14-12-10-8-6-4-2/h17-20H,3-16,21-36H2,1-2H3,(H,39,41)(H,40,42)/b19-17-,20-18-

> <PUBCHEM_IUPAC_INCHIKEY>
OXDXXMDEEFOVHR-CLFAGFIQSA-N

> <PUBCHEM_XLOGP3_AA>
13.8

> <PUBCHEM_EXACT_MASS>
588.55937954

> <PUBCHEM_MOLECULAR_FORMULA>
C38H72N2O2

> <PUBCHEM_MOLECULAR_WEIGHT>
589.0

> <PUBCHEM_SMILES>
CCCCCCCC/C=C\CCCCCCCC(=O)NCCNC(=O)CCCCCCC/C=C\CCCCCCCC

> <PUBCHEM_OPENEYE_CAN_SMILES>
CCCCCCCCC=CCCCCCCCC(=O)NCCNC(=O)CCCCCCCC=CCCCCCCCC

> <PUBCHEM_OPENEYE_ISO_SMILES>
CCCCCCCC/C=C\CCCCCCCC(=O)NCCNC(=O)CCCCCCC/C=C\CCCCCCCC

> <PUBCHEM_CACTVS_TPSA>
58.2

> <PUBCHEM_MONOISOTOPIC_WEIGHT>
588.55937954

> <PUBCHEM_TOTAL_CHARGE>
0

> <PUBCHEM_HEAVY_ATOM_COUNT>
42

> <PUBCHEM_ATOM_DEF_STEREO_COUNT>
0

> <PUBCHEM_ATOM_UDEF_STEREO_COUNT>
0

> <PUBCHEM_BOND_DEF_STEREO_COUNT>
2

> <PUBCHEM_BOND_UDEF_STEREO_COUNT>
0

> <PUBCHEM_ISOTOPIC_ATOM_COUNT>
0

> <PUBCHEM_COMPONENT_COUNT>
1

> <PUBCHEM_CACTVS_TAUTO_COUNT>
-1

> <PUBCHEM_COORDINATE_TYPE>
1
5
255

$$$$
