6437767
  -OEChem-04042512252D

119119  0     0  0  0  0  0  0999 V2000
    5.1350    4.1826    0.0000 O   0  0  0  0  0  0  0  0  0  0  0  0
    7.7331    6.6826    0.0000 N   0  0  0  0  0  0  0  0  0  0  0  0
    8.2331    8.2215    0.0000 N   0  0  0  0  0  0  0  0  0  0  0  0
    6.8671    4.1826    0.0000 N   0  0  0  0  0  0  0  0  0  0  0  0
    9.4932    6.9614    0.0000 C   0  0  0  0  0  0  0  0  0  0  0  0
    8.5421    7.2704    0.0000 C   0  0  0  0  0  0  0  0  0  0  0  0
   10.2363    7.6306    0.0000 C   0  0  0  0  0  0  0  0  0  0  0  0
   11.1874    7.3215    0.0000 C   0  0  0  0  0  0  0  0  0  0  0  0
    6.9241    7.2704    0.0000 C   0  0  0  0  0  0  0  0  0  0  0  0
   11.9305    7.9907    0.0000 C   0  0  0  0  0  0  0  0  0  0  0  0
    7.7331    5.6826    0.0000 C   0  0  0  0  0  0  0  0  0  0  0  0
    7.2331    8.2215    0.0000 C   0  0  0  0  0  0  0  0  0  0  0  0
   12.8816    7.6816    0.0000 C   0  0  0  0  0  0  0  0  0  0  0  0
    6.8671    5.1826    0.0000 C   0  0  0  0  0  0  0  0  0  0  0  0
   13.6247    8.3508    0.0000 C   0  0  0  0  0  0  0  0  0  0  0  0
   14.5758    8.0418    0.0000 C   0  0  0  0  0  0  0  0  0  0  0  0
    5.1350    1.1826    0.0000 C   0  0  0  0  0  0  0  0  0  0  0  0
    4.2690    0.6827    0.0000 C   0  0  0  0  0  0  0  0  0  0  0  0
    5.1350    2.1827    0.0000 C   0  0  0  0  0  0  0  0  0  0  0  0
    4.2690   -0.3173    0.0000 C   0  0  0  0  0  0  0  0  0  0  0  0
    6.0010    2.6827    0.0000 C   0  0  0  0  0  0  0  0  0  0  0  0
    3.4030   -0.8173    0.0000 C   0  0  0  0  0  0  0  0  0  0  0  0
   17.6368    6.1366    0.0000 C   0  0  0  0  0  0  0  0  0  0  0  0
   18.5879    5.8275    0.0000 C   0  0  0  0  0  0  0  0  0  0  0  0
   17.4289    7.1147    0.0000 C   0  0  0  0  0  0  0  0  0  0  0  0
    6.0010    3.6826    0.0000 C   0  0  0  0  0  0  0  0  0  0  0  0
    4.2690   -5.3174    0.0000 C   0  0  0  0  0  0  0  0  0  0  0  0
    4.2690   -6.3174    0.0000 C   0  0  0  0  0  0  0  0  0  0  0  0
   18.7958    4.8494    0.0000 C   0  0  0  0  0  0  0  0  0  0  0  0
   16.4779    7.4237    0.0000 C   0  0  0  0  0  0  0  0  0  0  0  0
    3.4030   -4.8174    0.0000 C   0  0  0  0  0  0  0  0  0  0  0  0
   15.3189    8.7109    0.0000 C   0  0  0  0  0  0  0  0  0  0  0  0
    3.4030   -1.8174    0.0000 C   0  0  0  0  0  0  0  0  0  0  0  0
    5.1350   -6.8174    0.0000 C   0  0  0  0  0  0  0  0  0  0  0  0
   19.7469    4.5404    0.0000 C   0  0  0  0  0  0  0  0  0  0  0  0
    3.4030   -3.8174    0.0000 C   0  0  0  0  0  0  0  0  0  0  0  0
   16.2700    8.4019    0.0000 C   0  0  0  0  0  0  0  0  0  0  0  0
    5.1350   -7.8174    0.0000 C   0  0  0  0  0  0  0  0  0  0  0  0
    2.5369   -2.3173    0.0000 C   0  0  0  0  0  0  0  0  0  0  0  0
    2.5369   -3.3174    0.0000 C   0  0  0  0  0  0  0  0  0  0  0  0
   19.9548    3.5622    0.0000 C   0  0  0  0  0  0  0  0  0  0  0  0
    6.0010   -8.3174    0.0000 C   0  0  0  0  0  0  0  0  0  0  0  0
   20.9058    3.2532    0.0000 C   0  0  0  0  0  0  0  0  0  0  0  0
    6.0010   -9.3174    0.0000 C   0  0  0  0  0  0  0  0  0  0  0  0
    9.2021    6.4140    0.0000 H   0  0  0  0  0  0  0  0  0  0  0  0
    9.9817    6.5797    0.0000 H   0  0  0  0  0  0  0  0  0  0  0  0
   10.5274    8.1780    0.0000 H   0  0  0  0  0  0  0  0  0  0  0  0
    9.7477    8.0123    0.0000 H   0  0  0  0  0  0  0  0  0  0  0  0
   10.8963    6.7741    0.0000 H   0  0  0  0  0  0  0  0  0  0  0  0
   11.6759    6.9398    0.0000 H   0  0  0  0  0  0  0  0  0  0  0  0
    6.3577    7.5226    0.0000 H   0  0  0  0  0  0  0  0  0  0  0  0
    6.6141    6.7335    0.0000 H   0  0  0  0  0  0  0  0  0  0  0  0
   12.2216    8.5381    0.0000 H   0  0  0  0  0  0  0  0  0  0  0  0
   11.4419    8.3724    0.0000 H   0  0  0  0  0  0  0  0  0  0  0  0
    7.9451    5.1000    0.0000 H   0  0  0  0  0  0  0  0  0  0  0  0
    8.3437    5.7903    0.0000 H   0  0  0  0  0  0  0  0  0  0  0  0
    7.2979    8.8381    0.0000 H   0  0  0  0  0  0  0  0  0  0  0  0
    6.6266    8.3504    0.0000 H   0  0  0  0  0  0  0  0  0  0  0  0
   12.5905    7.1342    0.0000 H   0  0  0  0  0  0  0  0  0  0  0  0
   13.3701    7.2999    0.0000 H   0  0  0  0  0  0  0  0  0  0  0  0
    6.6550    5.7653    0.0000 H   0  0  0  0  0  0  0  0  0  0  0  0
    6.2565    5.0750    0.0000 H   0  0  0  0  0  0  0  0  0  0  0  0
   13.9158    8.8982    0.0000 H   0  0  0  0  0  0  0  0  0  0  0  0
   13.1361    8.7325    0.0000 H   0  0  0  0  0  0  0  0  0  0  0  0
   14.2847    7.4943    0.0000 H   0  0  0  0  0  0  0  0  0  0  0  0
   15.0643    7.6600    0.0000 H   0  0  0  0  0  0  0  0  0  0  0  0
    5.3471    0.6000    0.0000 H   0  0  0  0  0  0  0  0  0  0  0  0
    5.7456    1.2903    0.0000 H   0  0  0  0  0  0  0  0  0  0  0  0
    4.0569    1.2653    0.0000 H   0  0  0  0  0  0  0  0  0  0  0  0
    3.6584    0.5750    0.0000 H   0  0  0  0  0  0  0  0  0  0  0  0
    4.9230    2.7653    0.0000 H   0  0  0  0  0  0  0  0  0  0  0  0
    4.5244    2.0750    0.0000 H   0  0  0  0  0  0  0  0  0  0  0  0
    4.4810   -0.9000    0.0000 H   0  0  0  0  0  0  0  0  0  0  0  0
    4.8796   -0.2097    0.0000 H   0  0  0  0  0  0  0  0  0  0  0  0
    7.4040    3.8726    0.0000 H   0  0  0  0  0  0  0  0  0  0  0  0
    6.2131    2.1000    0.0000 H   0  0  0  0  0  0  0  0  0  0  0  0
    6.6116    2.7903    0.0000 H   0  0  0  0  0  0  0  0  0  0  0  0
    3.1909   -0.2347    0.0000 H   0  0  0  0  0  0  0  0  0  0  0  0
    2.7924   -0.9250    0.0000 H   0  0  0  0  0  0  0  0  0  0  0  0
   17.0172    6.1149    0.0000 H   0  0  0  0  0  0  0  0  0  0  0  0
   17.5506    5.5226    0.0000 H   0  0  0  0  0  0  0  0  0  0  0  0
   19.2075    5.8492    0.0000 H   0  0  0  0  0  0  0  0  0  0  0  0
   18.6742    6.4415    0.0000 H   0  0  0  0  0  0  0  0  0  0  0  0
   18.0486    7.1364    0.0000 H   0  0  0  0  0  0  0  0  0  0  0  0
   17.5152    7.7287    0.0000 H   0  0  0  0  0  0  0  0  0  0  0  0
    4.8796   -5.4250    0.0000 H   0  0  0  0  0  0  0  0  0  0  0  0
    4.4810   -4.7347    0.0000 H   0  0  0  0  0  0  0  0  0  0  0  0
    3.6584   -6.2097    0.0000 H   0  0  0  0  0  0  0  0  0  0  0  0
    4.0569   -6.9000    0.0000 H   0  0  0  0  0  0  0  0  0  0  0  0
   18.1762    4.8278    0.0000 H   0  0  0  0  0  0  0  0  0  0  0  0
   18.7095    4.2354    0.0000 H   0  0  0  0  0  0  0  0  0  0  0  0
   15.8583    7.4021    0.0000 H   0  0  0  0  0  0  0  0  0  0  0  0
   16.3916    6.8098    0.0000 H   0  0  0  0  0  0  0  0  0  0  0  0
    2.7924   -4.7097    0.0000 H   0  0  0  0  0  0  0  0  0  0  0  0
    3.1909   -5.4000    0.0000 H   0  0  0  0  0  0  0  0  0  0  0  0
   15.1900    9.3174    0.0000 H   0  0  0  0  0  0  0  0  0  0  0  0
    5.7456   -6.9250    0.0000 H   0  0  0  0  0  0  0  0  0  0  0  0
    5.3471   -6.2347    0.0000 H   0  0  0  0  0  0  0  0  0  0  0  0
    3.6150   -2.4000    0.0000 H   0  0  0  0  0  0  0  0  0  0  0  0
    4.0135   -1.7097    0.0000 H   0  0  0  0  0  0  0  0  0  0  0  0
   20.3665    4.5620    0.0000 H   0  0  0  0  0  0  0  0  0  0  0  0
   19.8332    5.1544    0.0000 H   0  0  0  0  0  0  0  0  0  0  0  0
    4.0135   -3.9250    0.0000 H   0  0  0  0  0  0  0  0  0  0  0  0
    3.6150   -3.2347    0.0000 H   0  0  0  0  0  0  0  0  0  0  0  0
   16.7307    8.8167    0.0000 H   0  0  0  0  0  0  0  0  0  0  0  0
    4.5244   -7.7097    0.0000 H   0  0  0  0  0  0  0  0  0  0  0  0
    4.9230   -8.4000    0.0000 H   0  0  0  0  0  0  0  0  0  0  0  0
    2.0000   -2.0074    0.0000 H   0  0  0  0  0  0  0  0  0  0  0  0
    2.0000   -3.6274    0.0000 H   0  0  0  0  0  0  0  0  0  0  0  0
   19.3352    3.5406    0.0000 H   0  0  0  0  0  0  0  0  0  0  0  0
   19.8685    2.9483    0.0000 H   0  0  0  0  0  0  0  0  0  0  0  0
    6.6116   -8.4250    0.0000 H   0  0  0  0  0  0  0  0  0  0  0  0
    6.2131   -7.7347    0.0000 H   0  0  0  0  0  0  0  0  0  0  0  0
   20.7142    2.6636    0.0000 H   0  0  0  0  0  0  0  0  0  0  0  0
   21.4955    3.0616    0.0000 H   0  0  0  0  0  0  0  0  0  0  0  0
   21.0974    3.8429    0.0000 H   0  0  0  0  0  0  0  0  0  0  0  0
    5.3810   -9.3174    0.0000 H   0  0  0  0  0  0  0  0  0  0  0  0
    6.0010   -9.9374    0.0000 H   0  0  0  0  0  0  0  0  0  0  0  0
    6.6210   -9.3174    0.0000 H   0  0  0  0  0  0  0  0  0  0  0  0
  1 26  2  0  0  0  0
  2  6  1  0  0  0  0
  2  9  1  0  0  0  0
  2 11  1  0  0  0  0
  3  6  2  0  0  0  0
  3 12  1  0  0  0  0
  4 14  1  0  0  0  0
  4 26  1  0  0  0  0
  4 75  1  0  0  0  0
  5  6  1  0  0  0  0
  5  7  1  0  0  0  0
  5 45  1  0  0  0  0
  5 46  1  0  0  0  0
  7  8  1  0  0  0  0
  7 47  1  0  0  0  0
  7 48  1  0  0  0  0
  8 10  1  0  0  0  0
  8 49  1  0  0  0  0
  8 50  1  0  0  0  0
  9 12  1  0  0  0  0
  9 51  1  0  0  0  0
  9 52  1  0  0  0  0
 10 13  1  0  0  0  0
 10 53  1  0  0  0  0
 10 54  1  0  0  0  0
 11 14  1  0  0  0  0
 11 55  1  0  0  0  0
 11 56  1  0  0  0  0
 12 57  1  0  0  0  0
 12 58  1  0  0  0  0
 13 15  1  0  0  0  0
 13 59  1  0  0  0  0
 13 60  1  0  0  0  0
 14 61  1  0  0  0  0
 14 62  1  0  0  0  0
 15 16  1  0  0  0  0
 15 63  1  0  0  0  0
 15 64  1  0  0  0  0
 16 32  1  0  0  0  0
 16 65  1  0  0  0  0
 16 66  1  0  0  0  0
 17 18  1  0  0  0  0
 17 19  1  0  0  0  0
 17 67  1  0  0  0  0
 17 68  1  0  0  0  0
 18 20  1  0  0  0  0
 18 69  1  0  0  0  0
 18 70  1  0  0  0  0
 19 21  1  0  0  0  0
 19 71  1  0  0  0  0
 19 72  1  0  0  0  0
 20 22  1  0  0  0  0
 20 73  1  0  0  0  0
 20 74  1  0  0  0  0
 21 26  1  0  0  0  0
 21 76  1  0  0  0  0
 21 77  1  0  0  0  0
 22 33  1  0  0  0  0
 22 78  1  0  0  0  0
 22 79  1  0  0  0  0
 23 24  1  0  0  0  0
 23 25  1  0  0  0  0
 23 80  1  0  0  0  0
 23 81  1  0  0  0  0
 24 29  1  0  0  0  0
 24 82  1  0  0  0  0
 24 83  1  0  0  0  0
 25 30  1  0  0  0  0
 25 84  1  0  0  0  0
 25 85  1  0  0  0  0
 27 28  1  0  0  0  0
 27 31  1  0  0  0  0
 27 86  1  0  0  0  0
 27 87  1  0  0  0  0
 28 34  1  0  0  0  0
 28 88  1  0  0  0  0
 28 89  1  0  0  0  0
 29 35  1  0  0  0  0
 29 90  1  0  0  0  0
 29 91  1  0  0  0  0
 30 37  1  0  0  0  0
 30 92  1  0  0  0  0
 30 93  1  0  0  0  0
 31 36  1  0  0  0  0
 31 94  1  0  0  0  0
 31 95  1  0  0  0  0
 32 37  2  0  0  0  0
 32 96  1  0  0  0  0
 33 39  1  0  0  0  0
 33 99  1  0  0  0  0
 33100  1  0  0  0  0
 34 38  1  0  0  0  0
 34 97  1  0  0  0  0
 34 98  1  0  0  0  0
 35 41  1  0  0  0  0
 35101  1  0  0  0  0
 35102  1  0  0  0  0
 36 40  1  0  0  0  0
 36103  1  0  0  0  0
 36104  1  0  0  0  0
 37105  1  0  0  0  0
 38 42  1  0  0  0  0
 38106  1  0  0  0  0
 38107  1  0  0  0  0
 39 40  2  0  0  0  0
 39108  1  0  0  0  0
 40109  1  0  0  0  0
 41 43  1  0  0  0  0
 41110  1  0  0  0  0
 41111  1  0  0  0  0
 42 44  1  0  0  0  0
 42112  1  0  0  0  0
 42113  1  0  0  0  0
 43114  1  0  0  0  0
 43115  1  0  0  0  0
 43116  1  0  0  0  0
 44117  1  0  0  0  0
 44118  1  0  0  0  0
 44119  1  0  0  0  0
M  END
> <PUBCHEM_COMPOUND_CID>
6437767

> <PUBCHEM_COMPOUND_CANONICALIZED>
1

> <PUBCHEM_CACTVS_COMPLEXITY>
713

> <PUBCHEM_CACTVS_HBOND_ACCEPTOR>
2

> <PUBCHEM_CACTVS_HBOND_DONOR>
1

> <PUBCHEM_CACTVS_ROTATABLE_BOND>
33

> <PUBCHEM_CACTVS_SUBSKEYS>
AAADcfB/IAAAAAAAAAAAAAAAAAAAAQAAAAAAAAAAAAAAAAAAAAAAHgAQAAAACADBgAQDAAPAAACoACNyNAAAAAEgAAAJCIE4AAgAQBIAiQAUAAAAlgCIAAMYiICAAAAAAAAAAAAAAAAAAAAAAAAAAAAAAA==

> <PUBCHEM_IUPAC_OPENEYE_NAME>
(Z)-N-[2-[2-[(Z)-heptadec-8-enyl]-4,5-dihydroimidazol-1-yl]ethyl]octadec-9-enamide

> <PUBCHEM_IUPAC_CAS_NAME>
(Z)-N-[2-[2-[(Z)-heptadec-8-enyl]-4,5-dihydroimidazol-1-yl]ethyl]-9-octadecenamide

> <PUBCHEM_IUPAC_NAME_MARKUP>
(<I>Z</I>)-<I>N</I>-[2-[2-[(<I>Z</I>)-heptadec-8-enyl]-4,5-dihydroimidazol-1-yl]ethyl]octadec-9-enamide

> <PUBCHEM_IUPAC_NAME>
(Z)-N-[2-[2-[(Z)-heptadec-8-enyl]-4,5-dihydroimidazol-1-yl]ethyl]octadec-9-enamide

> <PUBCHEM_IUPAC_SYSTEMATIC_NAME>
(Z)-N-[2-[2-[(Z)-heptadec-8-enyl]-4,5-dihydroimidazol-1-yl]ethyl]octadec-9-enamide

> <PUBCHEM_IUPAC_TRADITIONAL_NAME>
(Z)-N-[2-[2-[(Z)-heptadec-8-enyl]-2-imidazolin-1-yl]ethyl]octadec-9-enamide

> <PUBCHEM_IUPAC_INCHI>
InChI=1S/C40H75N3O/c1-3-5-7-9-11-13-15-17-19-21-23-25-27-29-31-33-39-41-35-37-43(39)38-36-42-40(44)34-32-30-28-26-24-22-20-18-16-14-12-10-8-6-4-2/h17-20H,3-16,21-38H2,1-2H3,(H,42,44)/b19-17-,20-18-

> <PUBCHEM_IUPAC_INCHIKEY>
VASZKKUIFVKZER-CLFAGFIQSA-N

> <PUBCHEM_XLOGP3_AA>
13.7

> <PUBCHEM_EXACT_MASS>
613.59101402

> <PUBCHEM_MOLECULAR_FORMULA>
C40H75N3O

> <PUBCHEM_MOLECULAR_WEIGHT>
614.0

> <PUBCHEM_SMILES>
CCCCCCCC/C=C\CCCCCCCC1=NCCN1CCNC(=O)CCCCCCC/C=C\CCCCCCCC

> <PUBCHEM_OPENEYE_CAN_SMILES>
CCCCCCCCC=CCCCCCCCC1=NCCN1CCNC(=O)CCCCCCCC=CCCCCCCCC

> <PUBCHEM_OPENEYE_ISO_SMILES>
CCCCCCCC/C=C\CCCCCCCC1=NCCN1CCNC(=O)CCCCCCC/C=C\CCCCCCCC

> <PUBCHEM_CACTVS_TPSA>
44.7

> <PUBCHEM_MONOISOTOPIC_WEIGHT>
613.59101402

> <PUBCHEM_TOTAL_CHARGE>
0

> <PUBCHEM_HEAVY_ATOM_COUNT>
44

> <PUBCHEM_ATOM_DEF_STEREO_COUNT>
0

> <PUBCHEM_ATOM_UDEF_STEREO_COUNT>
0

> <PUBCHEM_BOND_DEF_STEREO_COUNT>
2

> <PUBCHEM_BOND_UDEF_STEREO_COUNT>
0

> <PUBCHEM_ISOTOPIC_ATOM_COUNT>
0

> <PUBCHEM_COMPONENT_COUNT>
1

> <PUBCHEM_CACTVS_TAUTO_COUNT>
-1

> <PUBCHEM_COORDINATE_TYPE>
1
5
255

$$$$
