6440859
  -OEChem-04042512412D

 94 97  0     0  0  0  0  0  0999 V2000
   10.6603    1.2500    0.0000 S   0  0  0  0  0  0  0  0  0  0  0  0
    6.3301   -1.2500    0.0000 S   0  0  0  0  0  0  0  0  0  0  0  0
   11.5263    2.7500    0.0000 Na  0  3  0  0  0  0  0  0  0  0  0  0
    5.4641   -2.7500    0.0000 Na  0  3  0  0  0  0  0  0  0  0  0  0
   10.6603    2.2500    0.0000 O   0  5  0  0  0  0  0  0  0  0  0  0
    6.3301   -2.2500    0.0000 O   0  5  0  0  0  0  0  0  0  0  0  0
   11.6603    1.2500    0.0000 O   0  0  0  0  0  0  0  0  0  0  0  0
    9.6602    1.2500    0.0000 O   0  0  0  0  0  0  0  0  0  0  0  0
    5.3301   -1.2500    0.0000 O   0  0  0  0  0  0  0  0  0  0  0  0
    7.3301   -1.2500    0.0000 O   0  0  0  0  0  0  0  0  0  0  0  0
    9.7942   -7.2500    0.0000 O   0  0  0  0  0  0  0  0  0  0  0  0
    7.1962    7.2500    0.0000 O   0  0  0  0  0  0  0  0  0  0  0  0
   12.3923   -1.7500    0.0000 N   0  0  0  0  0  0  0  0  0  0  0  0
    4.5981    1.7500    0.0000 N   0  0  0  0  0  0  0  0  0  0  0  0
   11.5263   -3.2500    0.0000 N   0  0  0  0  0  0  0  0  0  0  0  0
    5.4641    3.2500    0.0000 N   0  0  0  0  0  0  0  0  0  0  0  0
   13.2583   -3.2500    0.0000 N   0  0  0  0  0  0  0  0  0  0  0  0
    3.7320    3.2500    0.0000 N   0  0  0  0  0  0  0  0  0  0  0  0
   10.6603   -4.7500    0.0000 N   0  0  0  0  0  0  0  0  0  0  0  0
    6.3301    4.7500    0.0000 N   0  0  0  0  0  0  0  0  0  0  0  0
   14.1244   -4.7500    0.0000 N   0  0  0  0  0  0  0  0  0  0  0  0
    2.8660    4.7500    0.0000 N   0  0  0  0  0  0  0  0  0  0  0  0
   12.3923   -4.7500    0.0000 N   0  0  0  0  0  0  0  0  0  0  0  0
    4.5981    4.7500    0.0000 N   0  0  0  0  0  0  0  0  0  0  0  0
    9.7942   -0.2500    0.0000 C   0  0  0  0  0  0  0  0  0  0  0  0
    7.1962    0.2500    0.0000 C   0  0  0  0  0  0  0  0  0  0  0  0
   10.6603    0.2500    0.0000 C   0  0  0  0  0  0  0  0  0  0  0  0
    6.3301   -0.2500    0.0000 C   0  0  0  0  0  0  0  0  0  0  0  0
    8.9282    0.2500    0.0000 C   0  0  0  0  0  0  0  0  0  0  0  0
    8.0622   -0.2500    0.0000 C   0  0  0  0  0  0  0  0  0  0  0  0
   11.5263   -1.2500    0.0000 C   0  0  0  0  0  0  0  0  0  0  0  0
    5.4641    1.2500    0.0000 C   0  0  0  0  0  0  0  0  0  0  0  0
   11.5263   -0.2500    0.0000 C   0  0  0  0  0  0  0  0  0  0  0  0
    5.4641    0.2500    0.0000 C   0  0  0  0  0  0  0  0  0  0  0  0
    9.7942   -1.2500    0.0000 C   0  0  0  0  0  0  0  0  0  0  0  0
    7.1962    1.2500    0.0000 C   0  0  0  0  0  0  0  0  0  0  0  0
   10.6603   -1.7500    0.0000 C   0  0  0  0  0  0  0  0  0  0  0  0
    6.3301    1.7500    0.0000 C   0  0  0  0  0  0  0  0  0  0  0  0
   12.3923   -2.7500    0.0000 C   0  0  0  0  0  0  0  0  0  0  0  0
    4.5981    2.7500    0.0000 C   0  0  0  0  0  0  0  0  0  0  0  0
   11.5263   -4.2500    0.0000 C   0  0  0  0  0  0  0  0  0  0  0  0
    5.4641    4.2500    0.0000 C   0  0  0  0  0  0  0  0  0  0  0  0
   13.2583   -4.2500    0.0000 C   0  0  0  0  0  0  0  0  0  0  0  0
    3.7320    4.2500    0.0000 C   0  0  0  0  0  0  0  0  0  0  0  0
   10.6603   -5.7500    0.0000 C   0  0  0  0  0  0  0  0  0  0  0  0
    6.3301    5.7500    0.0000 C   0  0  0  0  0  0  0  0  0  0  0  0
   14.1244   -5.7500    0.0000 C   0  0  0  0  0  0  0  0  0  0  0  0
    2.8660    5.7500    0.0000 C   0  0  0  0  0  0  0  0  0  0  0  0
    9.7942   -6.2500    0.0000 C   0  0  0  0  0  0  0  0  0  0  0  0
    7.1962    6.2500    0.0000 C   0  0  0  0  0  0  0  0  0  0  0  0
   14.9904   -6.2500    0.0000 C   0  0  0  0  0  0  0  0  0  0  0  0
    3.7320    6.2500    0.0000 C   0  0  0  0  0  0  0  0  0  0  0  0
   13.2583   -6.2500    0.0000 C   0  0  0  0  0  0  0  0  0  0  0  0
    2.0000    6.2500    0.0000 C   0  0  0  0  0  0  0  0  0  0  0  0
   14.9904   -7.2500    0.0000 C   0  0  0  0  0  0  0  0  0  0  0  0
    3.7320    7.2500    0.0000 C   0  0  0  0  0  0  0  0  0  0  0  0
   13.2583   -7.2500    0.0000 C   0  0  0  0  0  0  0  0  0  0  0  0
    2.0000    7.2500    0.0000 C   0  0  0  0  0  0  0  0  0  0  0  0
   14.1244   -7.7500    0.0000 C   0  0  0  0  0  0  0  0  0  0  0  0
    2.8660    7.7500    0.0000 C   0  0  0  0  0  0  0  0  0  0  0  0
    8.9282    0.8700    0.0000 H   0  0  0  0  0  0  0  0  0  0  0  0
    8.0622   -0.8700    0.0000 H   0  0  0  0  0  0  0  0  0  0  0  0
   12.0632    0.0600    0.0000 H   0  0  0  0  0  0  0  0  0  0  0  0
    4.9272   -0.0600    0.0000 H   0  0  0  0  0  0  0  0  0  0  0  0
    9.2573   -1.5600    0.0000 H   0  0  0  0  0  0  0  0  0  0  0  0
    7.7331    1.5600    0.0000 H   0  0  0  0  0  0  0  0  0  0  0  0
   10.6603   -2.3700    0.0000 H   0  0  0  0  0  0  0  0  0  0  0  0
    6.3301    2.3700    0.0000 H   0  0  0  0  0  0  0  0  0  0  0  0
   12.9292   -1.4400    0.0000 H   0  0  0  0  0  0  0  0  0  0  0  0
    4.0611    1.4400    0.0000 H   0  0  0  0  0  0  0  0  0  0  0  0
   10.1233   -4.4400    0.0000 H   0  0  0  0  0  0  0  0  0  0  0  0
    6.8671    4.4400    0.0000 H   0  0  0  0  0  0  0  0  0  0  0  0
   10.8723   -6.3326    0.0000 H   0  0  0  0  0  0  0  0  0  0  0  0
   11.2708   -5.6423    0.0000 H   0  0  0  0  0  0  0  0  0  0  0  0
    6.1181    6.3326    0.0000 H   0  0  0  0  0  0  0  0  0  0  0  0
    5.7196    5.6423    0.0000 H   0  0  0  0  0  0  0  0  0  0  0  0
   14.6613   -4.4400    0.0000 H   0  0  0  0  0  0  0  0  0  0  0  0
    2.3291    4.4400    0.0000 H   0  0  0  0  0  0  0  0  0  0  0  0
    9.5822   -5.6674    0.0000 H   0  0  0  0  0  0  0  0  0  0  0  0
    9.1836   -6.3577    0.0000 H   0  0  0  0  0  0  0  0  0  0  0  0
    7.4082    5.6674    0.0000 H   0  0  0  0  0  0  0  0  0  0  0  0
    7.8067    6.3577    0.0000 H   0  0  0  0  0  0  0  0  0  0  0  0
   15.5273   -5.9400    0.0000 H   0  0  0  0  0  0  0  0  0  0  0  0
    4.2690    5.9400    0.0000 H   0  0  0  0  0  0  0  0  0  0  0  0
   12.7214   -5.9400    0.0000 H   0  0  0  0  0  0  0  0  0  0  0  0
    1.4631    5.9400    0.0000 H   0  0  0  0  0  0  0  0  0  0  0  0
   15.5273   -7.5600    0.0000 H   0  0  0  0  0  0  0  0  0  0  0  0
    4.2690    7.5600    0.0000 H   0  0  0  0  0  0  0  0  0  0  0  0
   12.7214   -7.5600    0.0000 H   0  0  0  0  0  0  0  0  0  0  0  0
    1.4631    7.5600    0.0000 H   0  0  0  0  0  0  0  0  0  0  0  0
   14.1244   -8.3700    0.0000 H   0  0  0  0  0  0  0  0  0  0  0  0
    2.8660    8.3700    0.0000 H   0  0  0  0  0  0  0  0  0  0  0  0
    9.2573   -7.5600    0.0000 H   0  0  0  0  0  0  0  0  0  0  0  0
    7.7331    7.5600    0.0000 H   0  0  0  0  0  0  0  0  0  0  0  0
  1  5  1  0  0  0  0
  1  7  2  0  0  0  0
  1  8  2  0  0  0  0
  1 27  1  0  0  0  0
  2  6  1  0  0  0  0
  2  9  2  0  0  0  0
  2 10  2  0  0  0  0
  2 28  1  0  0  0  0
 11 49  1  0  0  0  0
 11 93  1  0  0  0  0
 12 50  1  0  0  0  0
 12 94  1  0  0  0  0
 13 31  1  0  0  0  0
 13 39  1  0  0  0  0
 13 69  1  0  0  0  0
 14 32  1  0  0  0  0
 14 40  1  0  0  0  0
 14 70  1  0  0  0  0
 15 39  2  0  0  0  0
 15 41  1  0  0  0  0
 16 40  2  0  0  0  0
 16 42  1  0  0  0  0
 17 39  1  0  0  0  0
 17 43  2  0  0  0  0
 18 40  1  0  0  0  0
 18 44  2  0  0  0  0
 19 41  1  0  0  0  0
 19 45  1  0  0  0  0
 19 71  1  0  0  0  0
 20 42  1  0  0  0  0
 20 46  1  0  0  0  0
 20 72  1  0  0  0  0
 21 43  1  0  0  0  0
 21 47  1  0  0  0  0
 21 77  1  0  0  0  0
 22 44  1  0  0  0  0
 22 48  1  0  0  0  0
 22 78  1  0  0  0  0
 23 41  2  0  0  0  0
 23 43  1  0  0  0  0
 24 42  2  0  0  0  0
 24 44  1  0  0  0  0
 25 27  2  0  0  0  0
 25 29  1  0  0  0  0
 25 35  1  0  0  0  0
 26 28  2  0  0  0  0
 26 30  1  0  0  0  0
 26 36  1  0  0  0  0
 27 33  1  0  0  0  0
 28 34  1  0  0  0  0
 29 30  2  0  0  0  0
 29 61  1  0  0  0  0
 30 62  1  0  0  0  0
 31 33  2  0  0  0  0
 31 37  1  0  0  0  0
 32 34  2  0  0  0  0
 32 38  1  0  0  0  0
 33 63  1  0  0  0  0
 34 64  1  0  0  0  0
 35 37  2  0  0  0  0
 35 65  1  0  0  0  0
 36 38  2  0  0  0  0
 36 66  1  0  0  0  0
 37 67  1  0  0  0  0
 38 68  1  0  0  0  0
 45 49  1  0  0  0  0
 45 73  1  0  0  0  0
 45 74  1  0  0  0  0
 46 50  1  0  0  0  0
 46 75  1  0  0  0  0
 46 76  1  0  0  0  0
 47 51  2  0  0  0  0
 47 53  1  0  0  0  0
 48 52  2  0  0  0  0
 48 54  1  0  0  0  0
 49 79  1  0  0  0  0
 49 80  1  0  0  0  0
 50 81  1  0  0  0  0
 50 82  1  0  0  0  0
 51 55  1  0  0  0  0
 51 83  1  0  0  0  0
 52 56  1  0  0  0  0
 52 84  1  0  0  0  0
 53 57  2  0  0  0  0
 53 85  1  0  0  0  0
 54 58  2  0  0  0  0
 54 86  1  0  0  0  0
 55 59  2  0  0  0  0
 55 87  1  0  0  0  0
 56 60  2  0  0  0  0
 56 88  1  0  0  0  0
 57 59  1  0  0  0  0
 57 89  1  0  0  0  0
 58 60  1  0  0  0  0
 58 90  1  0  0  0  0
 59 91  1  0  0  0  0
 60 92  1  0  0  0  0
M  CHG  4   3   1   4   1   5  -1   6  -1
M  END
> <PUBCHEM_COMPOUND_CID>
6440859

> <PUBCHEM_COMPOUND_CANONICALIZED>
1

> <PUBCHEM_CACTVS_COMPLEXITY>
1350

> <PUBCHEM_CACTVS_HBOND_ACCEPTOR>
20

> <PUBCHEM_CACTVS_HBOND_DONOR>
8

> <PUBCHEM_CACTVS_ROTATABLE_BOND>
16

> <PUBCHEM_CACTVS_SUBSKEYS>
AAADcfB//DBgAAAAAAAAAAAAAAAAAAAAAAA8eMGCAAAAAAAB9AAAHgQQCAAADAjh2AYx0YbIEgKgAiRCZHDCAEkhAoAJiJgIZIiKOCLAmZGEIAxokAJYyCcQgAAOCAAAACAEAAAQAAAAQAgAAAAAAAAAAA==

> <PUBCHEM_IUPAC_OPENEYE_NAME>
disodium;5-[[4-anilino-6-(2-hydroxyethylamino)-1,3,5-triazin-2-yl]amino]-2-[(E)-2-[4-[[4-anilino-6-(2-hydroxyethylamino)-1,3,5-triazin-2-yl]amino]-2-sulfonato-phenyl]vinyl]benzenesulfonate

> <PUBCHEM_IUPAC_CAS_NAME>
disodium;5-[[4-anilino-6-(2-hydroxyethylamino)-1,3,5-triazin-2-yl]amino]-2-[(E)-2-[4-[[4-anilino-6-(2-hydroxyethylamino)-1,3,5-triazin-2-yl]amino]-2-sulfonatophenyl]ethenyl]benzenesulfonate

> <PUBCHEM_IUPAC_NAME_MARKUP>
disodium;5-[[4-anilino-6-(2-hydroxyethylamino)-1,3,5-triazin-2-yl]amino]-2-[(<I>E</I>)-2-[4-[[4-anilino-6-(2-hydroxyethylamino)-1,3,5-triazin-2-yl]amino]-2-sulfonatophenyl]ethenyl]benzenesulfonate

> <PUBCHEM_IUPAC_NAME>
disodium;5-[[4-anilino-6-(2-hydroxyethylamino)-1,3,5-triazin-2-yl]amino]-2-[(E)-2-[4-[[4-anilino-6-(2-hydroxyethylamino)-1,3,5-triazin-2-yl]amino]-2-sulfonatophenyl]ethenyl]benzenesulfonate

> <PUBCHEM_IUPAC_SYSTEMATIC_NAME>
disodium;5-[[4-(2-hydroxyethylamino)-6-phenylazanyl-1,3,5-triazin-2-yl]amino]-2-[(E)-2-[4-[[4-(2-hydroxyethylamino)-6-phenylazanyl-1,3,5-triazin-2-yl]amino]-2-sulfonato-phenyl]ethenyl]benzenesulfonate

> <PUBCHEM_IUPAC_TRADITIONAL_NAME>
disodium;5-[[4-anilino-6-(2-hydroxyethylamino)-s-triazin-2-yl]amino]-2-[(E)-2-[4-[[4-anilino-6-(2-hydroxyethylamino)-s-triazin-2-yl]amino]-2-sulfonato-phenyl]vinyl]besylate

> <PUBCHEM_IUPAC_INCHI>
InChI=1S/C36H36N12O8S2.2Na/c49-19-17-37-31-43-33(39-25-7-3-1-4-8-25)47-35(45-31)41-27-15-13-23(29(21-27)57(51,52)53)11-12-24-14-16-28(22-30(24)58(54,55)56)42-36-46-32(38-18-20-50)44-34(48-36)40-26-9-5-2-6-10-26;;/h1-16,21-22,49-50H,17-20H2,(H,51,52,53)(H,54,55,56)(H3,37,39,41,43,45,47)(H3,38,40,42,44,46,48);;/q;2*+1/p-2/b12-11+;;

> <PUBCHEM_IUPAC_INCHIKEY>
HIMNALZNLAOESZ-YHPRVSEPSA-L

> <PUBCHEM_EXACT_MASS>
872.18593700

> <PUBCHEM_MOLECULAR_FORMULA>
C36H34N12Na2O8S2

> <PUBCHEM_MOLECULAR_WEIGHT>
872.8

> <PUBCHEM_SMILES>
C1=CC=C(C=C1)NC2=NC(=NC(=N2)NCCO)NC3=CC(=C(C=C3)/C=C/C4=C(C=C(C=C4)NC5=NC(=NC(=N5)NC6=CC=CC=C6)NCCO)S(=O)(=O)[O-])S(=O)(=O)[O-].[Na+].[Na+]

> <PUBCHEM_OPENEYE_CAN_SMILES>
C1=CC=C(C=C1)NC2=NC(=NC(=N2)NCCO)NC3=CC(=C(C=C3)C=CC4=C(C=C(C=C4)NC5=NC(=NC(=N5)NC6=CC=CC=C6)NCCO)S(=O)(=O)[O-])S(=O)(=O)[O-].[Na+].[Na+]

> <PUBCHEM_OPENEYE_ISO_SMILES>
C1=CC=C(C=C1)NC2=NC(=NC(=N2)NCCO)NC3=CC(=C(C=C3)/C=C/C4=C(C=C(C=C4)NC5=NC(=NC(=N5)NC6=CC=CC=C6)NCCO)S(=O)(=O)[O-])S(=O)(=O)[O-].[Na+].[Na+]

> <PUBCHEM_CACTVS_TPSA>
321

> <PUBCHEM_MONOISOTOPIC_WEIGHT>
872.18593700

> <PUBCHEM_TOTAL_CHARGE>
0

> <PUBCHEM_HEAVY_ATOM_COUNT>
60

> <PUBCHEM_ATOM_DEF_STEREO_COUNT>
0

> <PUBCHEM_ATOM_UDEF_STEREO_COUNT>
0

> <PUBCHEM_BOND_DEF_STEREO_COUNT>
1

> <PUBCHEM_BOND_UDEF_STEREO_COUNT>
0

> <PUBCHEM_ISOTOPIC_ATOM_COUNT>
0

> <PUBCHEM_COMPONENT_COUNT>
3

> <PUBCHEM_CACTVS_TAUTO_COUNT>
-1

> <PUBCHEM_COORDINATE_TYPE>
1
5
255

> <PUBCHEM_BONDANNOTATIONS>
15  39  8
15  41  8
16  40  8
16  42  8
17  39  8
17  43  8
18  40  8
18  44  8
23  41  8
23  43  8
24  42  8
24  44  8
25  27  8
25  35  8
26  28  8
26  36  8
27  33  8
28  34  8
31  33  8
31  37  8
32  34  8
32  38  8
35  37  8
36  38  8
47  51  8
47  53  8
48  52  8
48  54  8
51  55  8
52  56  8
53  57  8
54  58  8
55  59  8
56  60  8
57  59  8
58  60  8

$$$$
