6486
  -OEChem-04042505362D

 71 74  0     0  0  0  0  0  0999 V2000
    5.4641   -1.4330    0.0000 O   0  0  0  0  0  0  0  0  0  0  0  0
    3.7320    1.5670    0.0000 O   0  0  0  0  0  0  0  0  0  0  0  0
    5.4641   -3.4330    0.0000 C   0  0  0  0  0  0  0  0  0  0  0  0
    5.4641    2.5670    0.0000 C   0  0  0  0  0  0  0  0  0  0  0  0
    5.9641   -4.2990    0.0000 C   0  0  0  0  0  0  0  0  0  0  0  0
    5.9641   -2.5670    0.0000 C   0  0  0  0  0  0  0  0  0  0  0  0
    6.4641    2.5670    0.0000 C   0  0  0  0  0  0  0  0  0  0  0  0
    4.9641    3.4330    0.0000 C   0  0  0  0  0  0  0  0  0  0  0  0
    6.9641   -4.2990    0.0000 C   0  0  0  0  0  0  0  0  0  0  0  0
    6.9641   -2.5670    0.0000 C   0  0  0  0  0  0  0  0  0  0  0  0
    6.9641    3.4330    0.0000 C   0  0  0  0  0  0  0  0  0  0  0  0
    5.4641    4.2990    0.0000 C   0  0  0  0  0  0  0  0  0  0  0  0
    7.4641   -3.4330    0.0000 C   0  0  0  0  0  0  0  0  0  0  0  0
    6.4641    4.2990    0.0000 C   0  0  0  0  0  0  0  0  0  0  0  0
    4.5981   -2.9330    0.0000 C   0  0  0  0  0  0  0  0  0  0  0  0
    5.4641    1.5670    0.0000 C   0  0  0  0  0  0  0  0  0  0  0  0
    4.5981   -3.9330    0.0000 C   0  0  0  0  0  0  0  0  0  0  0  0
    4.5981    2.0670    0.0000 C   0  0  0  0  0  0  0  0  0  0  0  0
    4.5981   -1.9330    0.0000 C   0  0  0  0  0  0  0  0  0  0  0  0
    4.5981    1.0670    0.0000 C   0  0  0  0  0  0  0  0  0  0  0  0
    3.7320   -3.4330    0.0000 C   0  0  0  0  0  0  0  0  0  0  0  0
    6.3301    1.0670    0.0000 C   0  0  0  0  0  0  0  0  0  0  0  0
    3.7320   -1.4330    0.0000 C   0  0  0  0  0  0  0  0  0  0  0  0
    4.5981    0.0670    0.0000 C   0  0  0  0  0  0  0  0  0  0  0  0
    3.7320   -0.4330    0.0000 C   0  0  0  0  0  0  0  0  0  0  0  0
    2.8660   -2.9330    0.0000 C   0  0  0  0  0  0  0  0  0  0  0  0
    6.3301    0.0670    0.0000 C   0  0  0  0  0  0  0  0  0  0  0  0
    2.8660   -1.9330    0.0000 C   0  0  0  0  0  0  0  0  0  0  0  0
    5.4641   -0.4330    0.0000 C   0  0  0  0  0  0  0  0  0  0  0  0
    2.0000   -3.4330    0.0000 C   0  0  0  0  0  0  0  0  0  0  0  0
    7.1962   -0.4330    0.0000 C   0  0  0  0  0  0  0  0  0  0  0  0
    5.3815   -4.5111    0.0000 H   0  0  0  0  0  0  0  0  0  0  0  0
    6.0718   -4.9096    0.0000 H   0  0  0  0  0  0  0  0  0  0  0  0
    6.0718   -1.9564    0.0000 H   0  0  0  0  0  0  0  0  0  0  0  0
    5.3815   -2.3549    0.0000 H   0  0  0  0  0  0  0  0  0  0  0  0
    6.3564    1.9564    0.0000 H   0  0  0  0  0  0  0  0  0  0  0  0
    7.0467    2.3549    0.0000 H   0  0  0  0  0  0  0  0  0  0  0  0
    4.4892    3.8315    0.0000 H   0  0  0  0  0  0  0  0  0  0  0  0
    4.4892    3.0345    0.0000 H   0  0  0  0  0  0  0  0  0  0  0  0
    6.8564   -4.9096    0.0000 H   0  0  0  0  0  0  0  0  0  0  0  0
    7.5467   -4.5111    0.0000 H   0  0  0  0  0  0  0  0  0  0  0  0
    7.5467   -2.3549    0.0000 H   0  0  0  0  0  0  0  0  0  0  0  0
    6.8564   -1.9564    0.0000 H   0  0  0  0  0  0  0  0  0  0  0  0
    7.4390    3.0345    0.0000 H   0  0  0  0  0  0  0  0  0  0  0  0
    7.4390    3.8315    0.0000 H   0  0  0  0  0  0  0  0  0  0  0  0
    5.5718    4.9096    0.0000 H   0  0  0  0  0  0  0  0  0  0  0  0
    4.8815    4.5111    0.0000 H   0  0  0  0  0  0  0  0  0  0  0  0
    7.9390   -3.8315    0.0000 H   0  0  0  0  0  0  0  0  0  0  0  0
    7.9390   -3.0345    0.0000 H   0  0  0  0  0  0  0  0  0  0  0  0
    7.0467    4.5111    0.0000 H   0  0  0  0  0  0  0  0  0  0  0  0
    6.3564    4.9096    0.0000 H   0  0  0  0  0  0  0  0  0  0  0  0
    4.2881   -3.3961    0.0000 H   0  0  0  0  0  0  0  0  0  0  0  0
    4.0611   -4.2430    0.0000 H   0  0  0  0  0  0  0  0  0  0  0  0
    4.9081   -4.4700    0.0000 H   0  0  0  0  0  0  0  0  0  0  0  0
    4.2881    2.6039    0.0000 H   0  0  0  0  0  0  0  0  0  0  0  0
    4.0611    1.7570    0.0000 H   0  0  0  0  0  0  0  0  0  0  0  0
    4.9081    1.5300    0.0000 H   0  0  0  0  0  0  0  0  0  0  0  0
    3.7320   -4.0530    0.0000 H   0  0  0  0  0  0  0  0  0  0  0  0
    6.8671    1.3770    0.0000 H   0  0  0  0  0  0  0  0  0  0  0  0
    3.5200    0.1496    0.0000 H   0  0  0  0  0  0  0  0  0  0  0  0
    3.1215   -0.5407    0.0000 H   0  0  0  0  0  0  0  0  0  0  0  0
    2.3291   -1.6230    0.0000 H   0  0  0  0  0  0  0  0  0  0  0  0
    5.4641   -1.0530    0.0000 H   0  0  0  0  0  0  0  0  0  0  0  0
    6.0010   -1.7430    0.0000 H   0  0  0  0  0  0  0  0  0  0  0  0
    3.1951    1.2570    0.0000 H   0  0  0  0  0  0  0  0  0  0  0  0
    1.6900   -2.8961    0.0000 H   0  0  0  0  0  0  0  0  0  0  0  0
    1.4631   -3.7430    0.0000 H   0  0  0  0  0  0  0  0  0  0  0  0
    2.3100   -3.9700    0.0000 H   0  0  0  0  0  0  0  0  0  0  0  0
    6.8862   -0.9699    0.0000 H   0  0  0  0  0  0  0  0  0  0  0  0
    7.7331   -0.7430    0.0000 H   0  0  0  0  0  0  0  0  0  0  0  0
    7.5062    0.1039    0.0000 H   0  0  0  0  0  0  0  0  0  0  0  0
  1 19  1  0  0  0  0
  1 64  1  0  0  0  0
  2 20  1  0  0  0  0
  2 65  1  0  0  0  0
  3  5  1  0  0  0  0
  3  6  1  0  0  0  0
  3 15  1  0  0  0  0
  3 17  1  0  0  0  0
  4  7  1  0  0  0  0
  4  8  1  0  0  0  0
  4 16  1  0  0  0  0
  4 18  1  0  0  0  0
  5  9  1  0  0  0  0
  5 32  1  0  0  0  0
  5 33  1  0  0  0  0
  6 10  1  0  0  0  0
  6 34  1  0  0  0  0
  6 35  1  0  0  0  0
  7 11  1  0  0  0  0
  7 36  1  0  0  0  0
  7 37  1  0  0  0  0
  8 12  1  0  0  0  0
  8 38  1  0  0  0  0
  8 39  1  0  0  0  0
  9 13  1  0  0  0  0
  9 40  1  0  0  0  0
  9 41  1  0  0  0  0
 10 13  1  0  0  0  0
 10 42  1  0  0  0  0
 10 43  1  0  0  0  0
 11 14  1  0  0  0  0
 11 44  1  0  0  0  0
 11 45  1  0  0  0  0
 12 14  1  0  0  0  0
 12 46  1  0  0  0  0
 12 47  1  0  0  0  0
 13 48  1  0  0  0  0
 13 49  1  0  0  0  0
 14 50  1  0  0  0  0
 14 51  1  0  0  0  0
 15 19  1  0  0  0  0
 15 21  2  0  0  0  0
 16 20  1  0  0  0  0
 16 22  2  0  0  0  0
 17 52  1  0  0  0  0
 17 53  1  0  0  0  0
 17 54  1  0  0  0  0
 18 55  1  0  0  0  0
 18 56  1  0  0  0  0
 18 57  1  0  0  0  0
 19 23  2  0  0  0  0
 20 24  2  0  0  0  0
 21 26  1  0  0  0  0
 21 58  1  0  0  0  0
 22 27  1  0  0  0  0
 22 59  1  0  0  0  0
 23 25  1  0  0  0  0
 23 28  1  0  0  0  0
 24 25  1  0  0  0  0
 24 29  1  0  0  0  0
 25 60  1  0  0  0  0
 25 61  1  0  0  0  0
 26 28  2  0  0  0  0
 26 30  1  0  0  0  0
 27 29  2  0  0  0  0
 27 31  1  0  0  0  0
 28 62  1  0  0  0  0
 29 63  1  0  0  0  0
 30 66  1  0  0  0  0
 30 67  1  0  0  0  0
 30 68  1  0  0  0  0
 31 69  1  0  0  0  0
 31 70  1  0  0  0  0
 31 71  1  0  0  0  0
M  END
> <PUBCHEM_COMPOUND_CID>
6486

> <PUBCHEM_COMPOUND_CANONICALIZED>
1

> <PUBCHEM_CACTVS_COMPLEXITY>
523

> <PUBCHEM_CACTVS_HBOND_ACCEPTOR>
2

> <PUBCHEM_CACTVS_HBOND_DONOR>
2

> <PUBCHEM_CACTVS_ROTATABLE_BOND>
4

> <PUBCHEM_CACTVS_SUBSKEYS>
AAADcfB4MAAAAAAAAAAAAAAAAAAAAAAAAAAwYMGAAAAAAAABQAAAGgAACAAADgSAmAAyBoAAAgCAAiBCAAACAAAgIAAAiAAECIgIJiKCERKAcAAkwBEImAeA4OQPoAACAAAIAABAAAQAABAAAAAAAAAAAA==

> <PUBCHEM_IUPAC_OPENEYE_NAME>
2-[[2-hydroxy-5-methyl-3-(1-methylcyclohexyl)phenyl]methyl]-4-methyl-6-(1-methylcyclohexyl)phenol

> <PUBCHEM_IUPAC_CAS_NAME>
2-[[2-hydroxy-5-methyl-3-(1-methylcyclohexyl)phenyl]methyl]-4-methyl-6-(1-methylcyclohexyl)phenol

> <PUBCHEM_IUPAC_NAME_MARKUP>
2-[[2-hydroxy-5-methyl-3-(1-methylcyclohexyl)phenyl]methyl]-4-methyl-6-(1-methylcyclohexyl)phenol

> <PUBCHEM_IUPAC_NAME>
2-[[2-hydroxy-5-methyl-3-(1-methylcyclohexyl)phenyl]methyl]-4-methyl-6-(1-methylcyclohexyl)phenol

> <PUBCHEM_IUPAC_SYSTEMATIC_NAME>
4-methyl-2-(1-methylcyclohexyl)-6-[[5-methyl-3-(1-methylcyclohexyl)-2-oxidanyl-phenyl]methyl]phenol

> <PUBCHEM_IUPAC_TRADITIONAL_NAME>
2-[2-hydroxy-5-methyl-3-(1-methylcyclohexyl)benzyl]-4-methyl-6-(1-methylcyclohexyl)phenol

> <PUBCHEM_IUPAC_INCHI>
InChI=1S/C29H40O2/c1-20-15-22(26(30)24(17-20)28(3)11-7-5-8-12-28)19-23-16-21(2)18-25(27(23)31)29(4)13-9-6-10-14-29/h15-18,30-31H,5-14,19H2,1-4H3

> <PUBCHEM_IUPAC_INCHIKEY>
PHXLONCQBNATSL-UHFFFAOYSA-N

> <PUBCHEM_XLOGP3_AA>
10

> <PUBCHEM_EXACT_MASS>
420.302830514

> <PUBCHEM_MOLECULAR_FORMULA>
C29H40O2

> <PUBCHEM_MOLECULAR_WEIGHT>
420.6

> <PUBCHEM_SMILES>
CC1=CC(=C(C(=C1)C2(CCCCC2)C)O)CC3=C(C(=CC(=C3)C)C4(CCCCC4)C)O

> <PUBCHEM_OPENEYE_CAN_SMILES>
CC1=CC(=C(C(=C1)C2(CCCCC2)C)O)CC3=C(C(=CC(=C3)C)C4(CCCCC4)C)O

> <PUBCHEM_OPENEYE_ISO_SMILES>
CC1=CC(=C(C(=C1)C2(CCCCC2)C)O)CC3=C(C(=CC(=C3)C)C4(CCCCC4)C)O

> <PUBCHEM_CACTVS_TPSA>
40.5

> <PUBCHEM_MONOISOTOPIC_WEIGHT>
420.302830514

> <PUBCHEM_TOTAL_CHARGE>
0

> <PUBCHEM_HEAVY_ATOM_COUNT>
31

> <PUBCHEM_ATOM_DEF_STEREO_COUNT>
0

> <PUBCHEM_ATOM_UDEF_STEREO_COUNT>
0

> <PUBCHEM_BOND_DEF_STEREO_COUNT>
0

> <PUBCHEM_BOND_UDEF_STEREO_COUNT>
0

> <PUBCHEM_ISOTOPIC_ATOM_COUNT>
0

> <PUBCHEM_COMPONENT_COUNT>
1

> <PUBCHEM_CACTVS_TAUTO_COUNT>
-1

> <PUBCHEM_COORDINATE_TYPE>
1
5
255

> <PUBCHEM_BONDANNOTATIONS>
15  19  8
15  21  8
16  20  8
16  22  8
19  23  8
20  24  8
21  26  8
22  27  8
23  28  8
24  29  8
26  28  8
27  29  8

$$$$
