66885
  -OEChem-04042505342D

 28 28  0     0  0  0  0  0  0999 V2000
    3.4030   -1.4050    0.0000 O   0  0  0  0  0  0  0  0  0  0  0  0
    5.1350    1.5950    0.0000 O   0  0  0  0  0  0  0  0  0  0  0  0
    2.5369   -3.9050    0.0000 O   0  0  0  0  0  0  0  0  0  0  0  0
    6.8671    3.5950    0.0000 O   0  0  0  0  0  0  0  0  0  0  0  0
    4.2690   -0.9050    0.0000 C   0  0  0  0  0  0  0  0  0  0  0  0
    5.1350    0.5950    0.0000 C   0  0  0  0  0  0  0  0  0  0  0  0
    4.2690    0.0950    0.0000 C   0  0  0  0  0  0  0  0  0  0  0  0
    3.4030   -2.4050    0.0000 C   0  0  0  0  0  0  0  0  0  0  0  0
    6.0010    2.0950    0.0000 C   0  0  0  0  0  0  0  0  0  0  0  0
    5.1350   -1.4050    0.0000 C   0  0  0  0  0  0  0  0  0  0  0  0
    6.0010    0.0950    0.0000 C   0  0  0  0  0  0  0  0  0  0  0  0
    6.0010   -0.9050    0.0000 C   0  0  0  0  0  0  0  0  0  0  0  0
    2.5369   -2.9050    0.0000 C   0  0  0  0  0  0  0  0  0  0  0  0
    6.0010    3.0950    0.0000 C   0  0  0  0  0  0  0  0  0  0  0  0
    3.7320    0.4050    0.0000 H   0  0  0  0  0  0  0  0  0  0  0  0
    3.6150   -2.9876    0.0000 H   0  0  0  0  0  0  0  0  0  0  0  0
    4.0135   -2.2973    0.0000 H   0  0  0  0  0  0  0  0  0  0  0  0
    6.2131    1.5124    0.0000 H   0  0  0  0  0  0  0  0  0  0  0  0
    6.6116    2.2027    0.0000 H   0  0  0  0  0  0  0  0  0  0  0  0
    5.1350   -2.0250    0.0000 H   0  0  0  0  0  0  0  0  0  0  0  0
    6.5380    0.4050    0.0000 H   0  0  0  0  0  0  0  0  0  0  0  0
    6.5380   -1.2150    0.0000 H   0  0  0  0  0  0  0  0  0  0  0  0
    2.3249   -2.3224    0.0000 H   0  0  0  0  0  0  0  0  0  0  0  0
    1.9264   -3.0127    0.0000 H   0  0  0  0  0  0  0  0  0  0  0  0
    5.7890    3.6776    0.0000 H   0  0  0  0  0  0  0  0  0  0  0  0
    5.3905    2.9873    0.0000 H   0  0  0  0  0  0  0  0  0  0  0  0
    2.0000   -4.2150    0.0000 H   0  0  0  0  0  0  0  0  0  0  0  0
    6.8671    4.2150    0.0000 H   0  0  0  0  0  0  0  0  0  0  0  0
  1  5  1  0  0  0  0
  1  8  1  0  0  0  0
  2  6  1  0  0  0  0
  2  9  1  0  0  0  0
  3 13  1  0  0  0  0
  3 27  1  0  0  0  0
  4 14  1  0  0  0  0
  4 28  1  0  0  0  0
  5  7  2  0  0  0  0
  5 10  1  0  0  0  0
  6  7  1  0  0  0  0
  6 11  2  0  0  0  0
  7 15  1  0  0  0  0
  8 13  1  0  0  0  0
  8 16  1  0  0  0  0
  8 17  1  0  0  0  0
  9 14  1  0  0  0  0
  9 18  1  0  0  0  0
  9 19  1  0  0  0  0
 10 12  2  0  0  0  0
 10 20  1  0  0  0  0
 11 12  1  0  0  0  0
 11 21  1  0  0  0  0
 12 22  1  0  0  0  0
 13 23  1  0  0  0  0
 13 24  1  0  0  0  0
 14 25  1  0  0  0  0
 14 26  1  0  0  0  0
M  END
> <PUBCHEM_COMPOUND_CID>
66885

> <PUBCHEM_COMPOUND_CANONICALIZED>
1

> <PUBCHEM_CACTVS_COMPLEXITY>
126

> <PUBCHEM_CACTVS_HBOND_ACCEPTOR>
4

> <PUBCHEM_CACTVS_HBOND_DONOR>
2

> <PUBCHEM_CACTVS_ROTATABLE_BOND>
6

> <PUBCHEM_CACTVS_SUBSKEYS>
AAADccBwOAAAAAAAAAAAAAAAAAAAAAAAAAAwAAAAAAAAAAABAAAAGgAACAAACASgkAIwBoAABgCAACBCAAACCAAgIAAIiAAGCIgNNyKEMRqCOCClwBULqAeAYAwAAAAACAAAAAAAAAAQAAAAAAAAAAAAAA==

> <PUBCHEM_IUPAC_OPENEYE_NAME>
2-[3-(2-hydroxyethoxy)phenoxy]ethanol

> <PUBCHEM_IUPAC_CAS_NAME>
2-[3-(2-hydroxyethoxy)phenoxy]ethanol

> <PUBCHEM_IUPAC_NAME_MARKUP>
2-[3-(2-hydroxyethoxy)phenoxy]ethanol

> <PUBCHEM_IUPAC_NAME>
2-[3-(2-hydroxyethoxy)phenoxy]ethanol

> <PUBCHEM_IUPAC_SYSTEMATIC_NAME>
2-[3-(2-hydroxyethyloxy)phenoxy]ethanol

> <PUBCHEM_IUPAC_TRADITIONAL_NAME>
2-[3-(2-hydroxyethoxy)phenoxy]ethanol

> <PUBCHEM_IUPAC_INCHI>
InChI=1S/C10H14O4/c11-4-6-13-9-2-1-3-10(8-9)14-7-5-12/h1-3,8,11-12H,4-7H2

> <PUBCHEM_IUPAC_INCHIKEY>
IAXFZZHBFXRZMT-UHFFFAOYSA-N

> <PUBCHEM_XLOGP3>
0.4

> <PUBCHEM_EXACT_MASS>
198.08920892

> <PUBCHEM_MOLECULAR_FORMULA>
C10H14O4

> <PUBCHEM_MOLECULAR_WEIGHT>
198.22

> <PUBCHEM_SMILES>
C1=CC(=CC(=C1)OCCO)OCCO

> <PUBCHEM_OPENEYE_CAN_SMILES>
C1=CC(=CC(=C1)OCCO)OCCO

> <PUBCHEM_OPENEYE_ISO_SMILES>
C1=CC(=CC(=C1)OCCO)OCCO

> <PUBCHEM_CACTVS_TPSA>
58.9

> <PUBCHEM_MONOISOTOPIC_WEIGHT>
198.08920892

> <PUBCHEM_TOTAL_CHARGE>
0

> <PUBCHEM_HEAVY_ATOM_COUNT>
14

> <PUBCHEM_ATOM_DEF_STEREO_COUNT>
0

> <PUBCHEM_ATOM_UDEF_STEREO_COUNT>
0

> <PUBCHEM_BOND_DEF_STEREO_COUNT>
0

> <PUBCHEM_BOND_UDEF_STEREO_COUNT>
0

> <PUBCHEM_ISOTOPIC_ATOM_COUNT>
0

> <PUBCHEM_COMPONENT_COUNT>
1

> <PUBCHEM_CACTVS_TAUTO_COUNT>
-1

> <PUBCHEM_COORDINATE_TYPE>
1
5
255

> <PUBCHEM_BONDANNOTATIONS>
10  12  8
11  12  8
5  10  8
5  7  8
6  11  8
6  7  8

$$$$
