67000
  -OEChem-04042512222D

 21 21  0     0  0  0  0  0  0999 V2000
    2.6723    2.2339    0.0000 O   0  0  0  0  0  0  0  0  0  0  0  0
    4.6261   -1.6139    0.0000 O   0  0  0  0  0  0  0  0  0  0  0  0
    5.5202    0.1648    0.0000 O   0  0  0  0  0  0  0  0  0  0  0  0
    3.7601   -0.1139    0.0000 N   0  0  0  0  0  0  0  0  0  0  0  0
    4.2601    1.4249    0.0000 N   0  0  0  0  0  0  0  0  0  0  0  0
    2.9511    0.4739    0.0000 C   0  0  0  0  0  0  0  0  0  0  0  0
    3.2601    1.4249    0.0000 C   0  0  0  0  0  0  0  0  0  0  0  0
    2.0000    0.7829    0.0000 C   0  0  0  0  0  0  0  0  0  0  0  0
    2.3633   -0.3352    0.0000 C   0  0  0  0  0  0  0  0  0  0  0  0
    4.5691    0.4739    0.0000 C   0  0  0  0  0  0  0  0  0  0  0  0
    3.7601   -1.1139    0.0000 C   0  0  0  0  0  0  0  0  0  0  0  0
    2.1916    1.3725    0.0000 H   0  0  0  0  0  0  0  0  0  0  0  0
    1.4103    0.9745    0.0000 H   0  0  0  0  0  0  0  0  0  0  0  0
    1.8084    0.1932    0.0000 H   0  0  0  0  0  0  0  0  0  0  0  0
    1.8617    0.0293    0.0000 H   0  0  0  0  0  0  0  0  0  0  0  0
    1.9988   -0.8368    0.0000 H   0  0  0  0  0  0  0  0  0  0  0  0
    2.8649   -0.6996    0.0000 H   0  0  0  0  0  0  0  0  0  0  0  0
    4.6245    1.9265    0.0000 H   0  0  0  0  0  0  0  0  0  0  0  0
    3.1495   -1.0063    0.0000 H   0  0  0  0  0  0  0  0  0  0  0  0
    3.5480   -1.6965    0.0000 H   0  0  0  0  0  0  0  0  0  0  0  0
    4.6261   -2.2339    0.0000 H   0  0  0  0  0  0  0  0  0  0  0  0
  1  7  2  0  0  0  0
  2 11  1  0  0  0  0
  2 21  1  0  0  0  0
  3 10  2  0  0  0  0
  4  6  1  0  0  0  0
  4 10  1  0  0  0  0
  4 11  1  0  0  0  0
  5  7  1  0  0  0  0
  5 10  1  0  0  0  0
  5 18  1  0  0  0  0
  6  7  1  0  0  0  0
  6  8  1  0  0  0  0
  6  9  1  0  0  0  0
  8 12  1  0  0  0  0
  8 13  1  0  0  0  0
  8 14  1  0  0  0  0
  9 15  1  0  0  0  0
  9 16  1  0  0  0  0
  9 17  1  0  0  0  0
 11 19  1  0  0  0  0
 11 20  1  0  0  0  0
M  END
> <PUBCHEM_COMPOUND_CID>
67000

> <PUBCHEM_COMPOUND_CANONICALIZED>
1

> <PUBCHEM_CACTVS_COMPLEXITY>
212

> <PUBCHEM_CACTVS_HBOND_ACCEPTOR>
3

> <PUBCHEM_CACTVS_HBOND_DONOR>
2

> <PUBCHEM_CACTVS_ROTATABLE_BOND>
1

> <PUBCHEM_CACTVS_SUBSKEYS>
AAADccBjMAAAAAAAAAAAAAAAAAAAAWAAAAAAAAAAAAAAAAAAAAAAHgAQCAAADIiBgAYDAAPAAgAIAAEQEAAAAAAAAAAAAAGIAACAUAAAACAUAAAIByIAAAAAAAAAAAAAAAAAAAAAAAAAAAAAAAAAAAAAAA==

> <PUBCHEM_IUPAC_OPENEYE_NAME>
1-(hydroxymethyl)-5,5-dimethyl-imidazolidine-2,4-dione

> <PUBCHEM_IUPAC_CAS_NAME>
1-(hydroxymethyl)-5,5-dimethylimidazolidine-2,4-dione

> <PUBCHEM_IUPAC_NAME_MARKUP>
1-(hydroxymethyl)-5,5-dimethylimidazolidine-2,4-dione

> <PUBCHEM_IUPAC_NAME>
1-(hydroxymethyl)-5,5-dimethylimidazolidine-2,4-dione

> <PUBCHEM_IUPAC_SYSTEMATIC_NAME>
1-(hydroxymethyl)-5,5-dimethyl-imidazolidine-2,4-dione

> <PUBCHEM_IUPAC_TRADITIONAL_NAME>
5,5-dimethyl-1-methylol-hydantoin

> <PUBCHEM_IUPAC_INCHI>
InChI=1S/C6H10N2O3/c1-6(2)4(10)7-5(11)8(6)3-9/h9H,3H2,1-2H3,(H,7,10,11)

> <PUBCHEM_IUPAC_INCHIKEY>
SIQZJFKTROUNPI-UHFFFAOYSA-N

> <PUBCHEM_XLOGP3_AA>
-0.3

> <PUBCHEM_EXACT_MASS>
158.06914219

> <PUBCHEM_MOLECULAR_FORMULA>
C6H10N2O3

> <PUBCHEM_MOLECULAR_WEIGHT>
158.16

> <PUBCHEM_SMILES>
CC1(C(=O)NC(=O)N1CO)C

> <PUBCHEM_OPENEYE_CAN_SMILES>
CC1(C(=O)NC(=O)N1CO)C

> <PUBCHEM_OPENEYE_ISO_SMILES>
CC1(C(=O)NC(=O)N1CO)C

> <PUBCHEM_CACTVS_TPSA>
69.6

> <PUBCHEM_MONOISOTOPIC_WEIGHT>
158.06914219

> <PUBCHEM_TOTAL_CHARGE>
0

> <PUBCHEM_HEAVY_ATOM_COUNT>
11

> <PUBCHEM_ATOM_DEF_STEREO_COUNT>
0

> <PUBCHEM_ATOM_UDEF_STEREO_COUNT>
0

> <PUBCHEM_BOND_DEF_STEREO_COUNT>
0

> <PUBCHEM_BOND_UDEF_STEREO_COUNT>
0

> <PUBCHEM_ISOTOPIC_ATOM_COUNT>
0

> <PUBCHEM_COMPONENT_COUNT>
1

> <PUBCHEM_CACTVS_TAUTO_COUNT>
-1

> <PUBCHEM_COORDINATE_TYPE>
1
5
255

$$$$
