67202838
  -OEChem-04042512282D

 23 22  0     1  0  0  0  0  0999 V2000
    2.0000   -0.0000    0.0000 Ca  0  2  0  0  0  0  0  0  0  0  0  0
    2.4339    0.9010    0.0000 O   0  5  0  0  0  0  0  0  0  0  0  0
    2.4339   -0.9010    0.0000 O   0  5  0  0  0  0  0  0  0  0  0  0
    3.6313    2.0984    0.0000 O   0  0  0  0  0  0  0  0  0  0  0  0
    3.6313   -2.0984    0.0000 O   0  0  0  0  0  0  0  0  0  0  0  0
    4.1906    0.5000    0.0000 C   0  0  2  0  0  0  0  0  0  0  0  0
    4.1906   -0.5000    0.0000 C   0  0  1  0  0  0  0  0  0  0  0  0
    5.0846    1.0347    0.0000 C   0  0  0  0  0  0  0  0  0  0  0  0
    5.0846   -1.0347    0.0000 C   0  0  0  0  0  0  0  0  0  0  0  0
    5.9906    0.5208    0.0000 C   0  0  0  0  0  0  0  0  0  0  0  0
    5.9906   -0.5208    0.0000 C   0  0  0  0  0  0  0  0  0  0  0  0
    3.4088    1.1235    0.0000 C   0  0  0  0  0  0  0  0  0  0  0  0
    3.4088   -1.1235    0.0000 C   0  0  0  0  0  0  0  0  0  0  0  0
    3.6320    0.2310    0.0000 H   0  0  0  0  0  0  0  0  0  0  0  0
    3.6320   -0.2310    0.0000 H   0  0  0  0  0  0  0  0  0  0  0  0
    5.4782    1.5137    0.0000 H   0  0  0  0  0  0  0  0  0  0  0  0
    4.6800    1.5044    0.0000 H   0  0  0  0  0  0  0  0  0  0  0  0
    4.6800   -1.5044    0.0000 H   0  0  0  0  0  0  0  0  0  0  0  0
    5.4782   -1.5137    0.0000 H   0  0  0  0  0  0  0  0  0  0  0  0
    6.6015    0.4147    0.0000 H   0  0  0  0  0  0  0  0  0  0  0  0
    6.1997    1.1045    0.0000 H   0  0  0  0  0  0  0  0  0  0  0  0
    6.1997   -1.1045    0.0000 H   0  0  0  0  0  0  0  0  0  0  0  0
    6.6015   -0.4147    0.0000 H   0  0  0  0  0  0  0  0  0  0  0  0
  2 12  1  0  0  0  0
  3 13  1  0  0  0  0
  4 12  2  0  0  0  0
  5 13  2  0  0  0  0
  6  7  1  0  0  0  0
  6  8  1  0  0  0  0
  6 12  1  1  0  0  0
  6 14  1  0  0  0  0
  7  9  1  0  0  0  0
  7 13  1  1  0  0  0
  7 15  1  0  0  0  0
  8 10  1  0  0  0  0
  8 16  1  0  0  0  0
  8 17  1  0  0  0  0
  9 11  1  0  0  0  0
  9 18  1  0  0  0  0
  9 19  1  0  0  0  0
 10 11  1  0  0  0  0
 10 20  1  0  0  0  0
 10 21  1  0  0  0  0
 11 22  1  0  0  0  0
 11 23  1  0  0  0  0
M  CHG  3   1   2   2  -1   3  -1
M  END
> <PUBCHEM_COMPOUND_CID>
67202838

> <PUBCHEM_COMPOUND_CANONICALIZED>
1

> <PUBCHEM_CACTVS_COMPLEXITY>
166

> <PUBCHEM_CACTVS_HBOND_ACCEPTOR>
4

> <PUBCHEM_CACTVS_HBOND_DONOR>
0

> <PUBCHEM_CACTVS_ROTATABLE_BOND>
0

> <PUBCHEM_CACTVS_SUBSKEYS>
AAADccBwOAAAAAgAAAAAAAAAAAAAAAAAAAAwAAAAAAAAAAAAAAAAGgAAAAAADQCAgAAACAAAAAAIAACQCAAAAAAAAAAAAAEAAAAAABIAAAAAAAAEAAAAAAHLyKCOgAAAAAAAAAAAAAAAACAAAAAAAAAAAA==

> <PUBCHEM_IUPAC_OPENEYE_NAME>
calcium;(1S,2R)-cyclohexane-1,2-dicarboxylate

> <PUBCHEM_IUPAC_CAS_NAME>
calcium;(1S,2R)-cyclohexane-1,2-dicarboxylate

> <PUBCHEM_IUPAC_NAME_MARKUP>
calcium;(1<I>S</I>,2<I>R</I>)-cyclohexane-1,2-dicarboxylate

> <PUBCHEM_IUPAC_NAME>
calcium;(1S,2R)-cyclohexane-1,2-dicarboxylate

> <PUBCHEM_IUPAC_SYSTEMATIC_NAME>
calcium;(1S,2R)-cyclohexane-1,2-dicarboxylate

> <PUBCHEM_IUPAC_TRADITIONAL_NAME>
calcium;(1S,2R)-cyclohexane-1,2-dicarboxylate

> <PUBCHEM_IUPAC_INCHI>
InChI=1S/C8H12O4.Ca/c9-7(10)5-3-1-2-4-6(5)8(11)12;/h5-6H,1-4H2,(H,9,10)(H,11,12);/q;+2/p-2/t5-,6+;

> <PUBCHEM_IUPAC_INCHIKEY>
XXHCQZDUJDEPSX-KNCHESJLSA-L

> <PUBCHEM_EXACT_MASS>
210.0204996

> <PUBCHEM_MOLECULAR_FORMULA>
C8H10CaO4

> <PUBCHEM_MOLECULAR_WEIGHT>
210.24

> <PUBCHEM_SMILES>
C1CC[C@@H]([C@@H](C1)C(=O)[O-])C(=O)[O-].[Ca+2]

> <PUBCHEM_OPENEYE_CAN_SMILES>
C1CCC(C(C1)C(=O)[O-])C(=O)[O-].[Ca+2]

> <PUBCHEM_OPENEYE_ISO_SMILES>
C1CC[C@@H]([C@@H](C1)C(=O)[O-])C(=O)[O-].[Ca+2]

> <PUBCHEM_CACTVS_TPSA>
80.3

> <PUBCHEM_MONOISOTOPIC_WEIGHT>
210.0204996

> <PUBCHEM_TOTAL_CHARGE>
0

> <PUBCHEM_HEAVY_ATOM_COUNT>
13

> <PUBCHEM_ATOM_DEF_STEREO_COUNT>
2

> <PUBCHEM_ATOM_UDEF_STEREO_COUNT>
0

> <PUBCHEM_BOND_DEF_STEREO_COUNT>
0

> <PUBCHEM_BOND_UDEF_STEREO_COUNT>
0

> <PUBCHEM_ISOTOPIC_ATOM_COUNT>
0

> <PUBCHEM_COMPONENT_COUNT>
2

> <PUBCHEM_CACTVS_TAUTO_COUNT>
-1

> <PUBCHEM_COORDINATE_TYPE>
1
5
255

> <PUBCHEM_BONDANNOTATIONS>
6  12  5
7  13  5

$$$$
