6850837
  -OEChem-04042505312D

 54 57  0     1  0  0  0  0  0999 V2000
    8.0901   -0.3797    0.0000 O   0  0  0  0  0  0  0  0  0  0  0  0
    6.3301    1.6550    0.0000 O   0  0  0  0  0  0  0  0  0  0  0  0
    5.4641    0.1550    0.0000 O   0  0  0  0  0  0  0  0  0  0  0  0
    8.9962    1.1758    0.0000 O   0  0  0  0  0  0  0  0  0  0  0  0
    7.1962   -1.8450    0.0000 O   0  0  0  0  0  0  0  0  0  0  0  0
    5.4641   -2.8450    0.0000 O   0  0  0  0  0  0  0  0  0  0  0  0
    7.1962    0.1550    0.0000 C   0  0  2  0  0  0  0  0  0  0  0  0
    7.1962    1.1550    0.0000 C   0  0  2  0  0  0  0  0  0  0  0  0
    6.3301   -0.3450    0.0000 C   0  0  1  0  0  0  0  0  0  0  0  0
    8.0901    1.6897    0.0000 C   0  0  0  0  0  0  0  0  0  0  0  0
    6.3301   -1.3450    0.0000 C   0  0  1  0  0  0  0  0  0  0  0  0
    5.4641    1.1550    0.0000 C   0  0  3  0  0  0  0  0  0  0  0  0
    8.9962    0.1342    0.0000 C   0  0  3  0  0  0  0  0  0  0  0  0
    5.4641   -1.8450    0.0000 C   0  0  0  0  0  0  0  0  0  0  0  0
    4.5981    1.6550    0.0000 C   0  0  0  0  0  0  0  0  0  0  0  0
    9.8602   -0.3692    0.0000 C   0  0  0  0  0  0  0  0  0  0  0  0
    3.7320    1.1550    0.0000 C   0  0  0  0  0  0  0  0  0  0  0  0
    4.5981    2.6550    0.0000 C   0  0  0  0  0  0  0  0  0  0  0  0
   10.7282    0.1275    0.0000 C   0  0  0  0  0  0  0  0  0  0  0  0
    9.8564   -1.3691    0.0000 C   0  0  0  0  0  0  0  0  0  0  0  0
    2.8660    1.6550    0.0000 C   0  0  0  0  0  0  0  0  0  0  0  0
    3.7320    3.1550    0.0000 C   0  0  0  0  0  0  0  0  0  0  0  0
    2.8660    2.6550    0.0000 C   0  0  0  0  0  0  0  0  0  0  0  0
   11.5923   -0.3758    0.0000 C   0  0  0  0  0  0  0  0  0  0  0  0
   10.7205   -1.8725    0.0000 C   0  0  0  0  0  0  0  0  0  0  0  0
   11.5884   -1.3758    0.0000 C   0  0  0  0  0  0  0  0  0  0  0  0
    2.0000    3.1550    0.0000 C   0  0  0  0  0  0  0  0  0  0  0  0
   12.4525   -1.8792    0.0000 C   0  0  0  0  0  0  0  0  0  0  0  0
    7.1896   -0.6950    0.0000 H   0  0  0  0  0  0  0  0  0  0  0  0
    7.1896    2.0050    0.0000 H   0  0  0  0  0  0  0  0  0  0  0  0
    5.5940   -0.7700    0.0000 H   0  0  0  0  0  0  0  0  0  0  0  0
    8.4837    2.1687    0.0000 H   0  0  0  0  0  0  0  0  0  0  0  0
    7.6855    2.1594    0.0000 H   0  0  0  0  0  0  0  0  0  0  0  0
    6.8671   -1.0350    0.0000 H   0  0  0  0  0  0  0  0  0  0  0  0
    5.4641    2.0050    0.0000 H   0  0  0  0  0  0  0  0  0  0  0  0
    8.9913   -0.7158    0.0000 H   0  0  0  0  0  0  0  0  0  0  0  0
    5.2520   -1.2624    0.0000 H   0  0  0  0  0  0  0  0  0  0  0  0
    4.8535   -1.9527    0.0000 H   0  0  0  0  0  0  0  0  0  0  0  0
    7.1962   -2.4650    0.0000 H   0  0  0  0  0  0  0  0  0  0  0  0
    3.7320    0.5350    0.0000 H   0  0  0  0  0  0  0  0  0  0  0  0
    5.1350    2.9650    0.0000 H   0  0  0  0  0  0  0  0  0  0  0  0
   10.7306    0.7475    0.0000 H   0  0  0  0  0  0  0  0  0  0  0  0
    9.3183   -1.6771    0.0000 H   0  0  0  0  0  0  0  0  0  0  0  0
    4.9272   -3.1550    0.0000 H   0  0  0  0  0  0  0  0  0  0  0  0
    2.3291    1.3450    0.0000 H   0  0  0  0  0  0  0  0  0  0  0  0
    3.7320    3.7750    0.0000 H   0  0  0  0  0  0  0  0  0  0  0  0
   12.1304   -0.0679    0.0000 H   0  0  0  0  0  0  0  0  0  0  0  0
   10.7181   -2.4925    0.0000 H   0  0  0  0  0  0  0  0  0  0  0  0
    2.3100    3.6919    0.0000 H   0  0  0  0  0  0  0  0  0  0  0  0
    1.4631    3.4650    0.0000 H   0  0  0  0  0  0  0  0  0  0  0  0
    1.6900    2.6181    0.0000 H   0  0  0  0  0  0  0  0  0  0  0  0
   12.1405   -2.4149    0.0000 H   0  0  0  0  0  0  0  0  0  0  0  0
   12.9883   -2.1912    0.0000 H   0  0  0  0  0  0  0  0  0  0  0  0
   12.7646   -1.3434    0.0000 H   0  0  0  0  0  0  0  0  0  0  0  0
  1  7  1  0  0  0  0
  1 13  1  0  0  0  0
  2  8  1  0  0  0  0
  2 12  1  0  0  0  0
  3  9  1  0  0  0  0
  3 12  1  0  0  0  0
  4 10  1  0  0  0  0
  4 13  1  0  0  0  0
 11  5  1  6  0  0  0
  5 39  1  0  0  0  0
  6 14  1  0  0  0  0
  6 44  1  0  0  0  0
  7  8  1  0  0  0  0
  7  9  1  0  0  0  0
  7 29  1  6  0  0  0
  8 10  1  0  0  0  0
  8 30  1  6  0  0  0
  9 11  1  0  0  0  0
  9 31  1  6  0  0  0
 10 32  1  0  0  0  0
 10 33  1  0  0  0  0
 11 14  1  0  0  0  0
 11 34  1  0  0  0  0
 12 15  1  0  0  0  0
 12 35  1  0  0  0  0
 13 16  1  0  0  0  0
 13 36  1  0  0  0  0
 14 37  1  0  0  0  0
 14 38  1  0  0  0  0
 15 17  2  0  0  0  0
 15 18  1  0  0  0  0
 16 19  2  0  0  0  0
 16 20  1  0  0  0  0
 17 21  1  0  0  0  0
 17 40  1  0  0  0  0
 18 22  2  0  0  0  0
 18 41  1  0  0  0  0
 19 24  1  0  0  0  0
 19 42  1  0  0  0  0
 20 25  2  0  0  0  0
 20 43  1  0  0  0  0
 21 23  2  0  0  0  0
 21 45  1  0  0  0  0
 22 23  1  0  0  0  0
 22 46  1  0  0  0  0
 23 27  1  0  0  0  0
 24 26  2  0  0  0  0
 24 47  1  0  0  0  0
 25 26  1  0  0  0  0
 25 48  1  0  0  0  0
 26 28  1  0  0  0  0
 27 49  1  0  0  0  0
 27 50  1  0  0  0  0
 27 51  1  0  0  0  0
 28 52  1  0  0  0  0
 28 53  1  0  0  0  0
 28 54  1  0  0  0  0
M  END
> <PUBCHEM_COMPOUND_CID>
6850837

> <PUBCHEM_COMPOUND_CANONICALIZED>
1

> <PUBCHEM_CACTVS_COMPLEXITY>
485

> <PUBCHEM_CACTVS_HBOND_ACCEPTOR>
6

> <PUBCHEM_CACTVS_HBOND_DONOR>
2

> <PUBCHEM_CACTVS_ROTATABLE_BOND>
4

> <PUBCHEM_CACTVS_SUBSKEYS>
AAADceB4OAAAAAAAAAAAAAAAAAAAAAAAAAA0aIEAAAAAAACRQAAAGgAACAAADBSwmAMyCIAABgCAAiBCAAACAAAgAAAIiAAACIgZNiKAMRiicAAlwAEPqAfA4DwOQAAAAAAAAACAAAAAAAAAAAAAAAAAAA==

> <PUBCHEM_IUPAC_OPENEYE_NAME>
(1R)-1-[(4R,4aR,8aS)-2,6-bis(p-tolyl)-4,4a,8,8a-tetrahydro-[1,3]dioxino[5,4-d][1,3]dioxin-4-yl]ethane-1,2-diol

> <PUBCHEM_IUPAC_CAS_NAME>
(1R)-1-[(4R,4aR,8aS)-2,6-bis(4-methylphenyl)-4,4a,8,8a-tetrahydro-[1,3]dioxino[5,4-d][1,3]dioxin-4-yl]ethane-1,2-diol

> <PUBCHEM_IUPAC_NAME_MARKUP>
(1<I>R</I>)-1-[(4<I>R</I>,4<I>a</I><I>R</I>,8<I>a</I><I>S</I>)-2,6-bis(4-methylphenyl)-4,4<I>a</I>,8,8<I>a</I>-tetrahydro-[1,3]dioxino[5,4-d][1,3]dioxin-4-yl]ethane-1,2-diol

> <PUBCHEM_IUPAC_NAME>
(1R)-1-[(4R,4aR,8aS)-2,6-bis(4-methylphenyl)-4,4a,8,8a-tetrahydro-[1,3]dioxino[5,4-d][1,3]dioxin-4-yl]ethane-1,2-diol

> <PUBCHEM_IUPAC_SYSTEMATIC_NAME>
(1R)-1-[(4R,4aR,8aS)-2,6-bis(4-methylphenyl)-4,4a,8,8a-tetrahydro-[1,3]dioxino[5,4-d][1,3]dioxin-4-yl]ethane-1,2-diol

> <PUBCHEM_IUPAC_TRADITIONAL_NAME>
(1R)-1-[(4R,4aR,8aS)-2,6-bis(p-tolyl)-4,4a,8,8a-tetrahydro-[1,3]dioxino[5,4-d][1,3]dioxin-4-yl]ethane-1,2-diol

> <PUBCHEM_IUPAC_INCHI>
InChI=1S/C22H26O6/c1-13-3-7-15(8-4-13)21-25-12-18-20(28-21)19(17(24)11-23)27-22(26-18)16-9-5-14(2)6-10-16/h3-10,17-24H,11-12H2,1-2H3/t17-,18+,19-,20-,21?,22?/m1/s1

> <PUBCHEM_IUPAC_INCHIKEY>
LQAFKEDMOAMGAK-RLCYQCIGSA-N

> <PUBCHEM_XLOGP3_AA>
2.1

> <PUBCHEM_EXACT_MASS>
386.17293854

> <PUBCHEM_MOLECULAR_FORMULA>
C22H26O6

> <PUBCHEM_MOLECULAR_WEIGHT>
386.4

> <PUBCHEM_SMILES>
CC1=CC=C(C=C1)C2OC[C@H]3[C@@H](O2)[C@H](OC(O3)C4=CC=C(C=C4)C)[C@@H](CO)O

> <PUBCHEM_OPENEYE_CAN_SMILES>
CC1=CC=C(C=C1)C2OCC3C(O2)C(OC(O3)C4=CC=C(C=C4)C)C(CO)O

> <PUBCHEM_OPENEYE_ISO_SMILES>
CC1=CC=C(C=C1)C2OC[C@H]3[C@@H](O2)[C@H](OC(O3)C4=CC=C(C=C4)C)[C@@H](CO)O

> <PUBCHEM_CACTVS_TPSA>
77.4

> <PUBCHEM_MONOISOTOPIC_WEIGHT>
386.17293854

> <PUBCHEM_TOTAL_CHARGE>
0

> <PUBCHEM_HEAVY_ATOM_COUNT>
28

> <PUBCHEM_ATOM_DEF_STEREO_COUNT>
4

> <PUBCHEM_ATOM_UDEF_STEREO_COUNT>
2

> <PUBCHEM_BOND_DEF_STEREO_COUNT>
0

> <PUBCHEM_BOND_UDEF_STEREO_COUNT>
0

> <PUBCHEM_ISOTOPIC_ATOM_COUNT>
0

> <PUBCHEM_COMPONENT_COUNT>
1

> <PUBCHEM_CACTVS_TAUTO_COUNT>
-1

> <PUBCHEM_COORDINATE_TYPE>
1
5
255

> <PUBCHEM_BONDANNOTATIONS>
12  35  3
13  36  3
15  17  8
15  18  8
16  19  8
16  20  8
17  21  8
18  22  8
19  24  8
20  25  8
21  23  8
22  23  8
24  26  8
25  26  8
11  5  6
7  29  6
8  30  6
9  31  6

$$$$
