72942006
  -OEChem-04042512342D

 88 91  0     1  0  0  0  0  0999 V2000
    6.4103   -1.8157    0.0000 O   0  0  0  0  0  0  0  0  0  0  0  0
    8.3673    0.2062    0.0000 O   0  0  0  0  0  0  0  0  0  0  0  0
   12.0172   -2.5648    0.0000 O   0  0  0  0  0  0  0  0  0  0  0  0
    7.9939   -1.0110    0.0000 O   0  0  0  0  0  0  0  0  0  0  0  0
    9.6565    1.3630    0.0000 O   0  0  0  0  0  0  0  0  0  0  0  0
    6.4103   -0.2062    0.0000 C   0  0  3  0  0  0  0  0  0  0  0  0
   10.0602   -2.9772    0.0000 C   0  0  0  0  0  0  0  0  0  0  0  0
   12.6385   -0.6637    0.0000 C   0  0  0  0  0  0  0  0  0  0  0  0
    2.8660   -0.0110    0.0000 C   0  0  0  0  0  0  0  0  0  0  0  0
    5.4641   -0.5110    0.0000 C   0  0  0  0  0  0  0  0  0  0  0  0
   10.3709   -2.0267    0.0000 C   0  0  0  0  0  0  0  0  0  0  0  0
   11.6600   -0.8699    0.0000 C   0  0  0  0  0  0  0  0  0  0  0  0
    5.6960    3.1834    0.0000 C   0  0  0  0  0  0  0  0  0  0  0  0
    6.7210    0.7443    0.0000 C   0  0  0  0  0  0  0  0  0  0  0  0
    3.7320   -0.5110    0.0000 C   0  0  0  0  0  0  0  0  0  0  0  0
    6.3638    2.4391    0.0000 C   0  0  0  0  0  0  0  0  0  0  0  0
   11.3494   -1.8205    0.0000 C   0  0  0  0  0  0  0  0  0  0  0  0
    4.5981   -0.0110    0.0000 C   0  0  0  0  0  0  0  0  0  0  0  0
    5.4641   -1.5110    0.0000 C   0  0  0  0  0  0  0  0  0  0  0  0
    6.0531    1.4886    0.0000 C   0  0  0  0  0  0  0  0  0  0  0  0
    7.6995    0.9505    0.0000 C   0  0  0  0  0  0  0  0  0  0  0  0
    6.9939   -1.0110    0.0000 C   0  0  0  0  0  0  0  0  0  0  0  0
    9.7030   -1.2824    0.0000 C   0  0  0  0  0  0  0  0  0  0  0  0
   10.9922   -0.1256    0.0000 C   0  0  0  0  0  0  0  0  0  0  0  0
   10.0137   -0.3319    0.0000 C   0  0  0  0  0  0  0  0  0  0  0  0
    9.7495   -3.9277    0.0000 C   0  0  0  0  0  0  0  0  0  0  0  0
   11.0107   -3.2879    0.0000 C   0  0  0  0  0  0  0  0  0  0  0  0
    9.1097   -2.6665    0.0000 C   0  0  0  0  0  0  0  0  0  0  0  0
   13.6170   -0.4575    0.0000 C   0  0  0  0  0  0  0  0  0  0  0  0
   12.4323    0.3148    0.0000 C   0  0  0  0  0  0  0  0  0  0  0  0
   12.8448   -1.6422    0.0000 C   0  0  0  0  0  0  0  0  0  0  0  0
    3.7320   -1.5110    0.0000 C   0  0  0  0  0  0  0  0  0  0  0  0
    2.0000    0.4890    0.0000 C   0  0  0  0  0  0  0  0  0  0  0  0
    2.3660   -0.8770    0.0000 C   0  0  0  0  0  0  0  0  0  0  0  0
    3.3660    0.8551    0.0000 C   0  0  0  0  0  0  0  0  0  0  0  0
    4.5981   -2.0109    0.0000 C   0  0  0  0  0  0  0  0  0  0  0  0
    7.3423    2.6453    0.0000 C   0  0  0  0  0  0  0  0  0  0  0  0
    5.0281    3.9277    0.0000 C   0  0  0  0  0  0  0  0  0  0  0  0
    6.4403    3.8513    0.0000 C   0  0  0  0  0  0  0  0  0  0  0  0
    4.9517    2.5156    0.0000 C   0  0  0  0  0  0  0  0  0  0  0  0
    8.0102    1.9010    0.0000 C   0  0  0  0  0  0  0  0  0  0  0  0
    9.3458    0.4124    0.0000 C   0  0  0  0  0  0  0  0  0  0  0  0
    7.0228   -0.1100    0.0000 H   0  0  0  0  0  0  0  0  0  0  0  0
    4.5981    0.6090    0.0000 H   0  0  0  0  0  0  0  0  0  0  0  0
    5.4465    1.3607    0.0000 H   0  0  0  0  0  0  0  0  0  0  0  0
    9.0963   -1.4102    0.0000 H   0  0  0  0  0  0  0  0  0  0  0  0
   11.1848    0.4637    0.0000 H   0  0  0  0  0  0  0  0  0  0  0  0
    9.1602   -3.7351    0.0000 H   0  0  0  0  0  0  0  0  0  0  0  0
    9.5569   -4.5170    0.0000 H   0  0  0  0  0  0  0  0  0  0  0  0
   10.3389   -4.1203    0.0000 H   0  0  0  0  0  0  0  0  0  0  0  0
   10.8181   -3.8772    0.0000 H   0  0  0  0  0  0  0  0  0  0  0  0
   11.6000   -3.4805    0.0000 H   0  0  0  0  0  0  0  0  0  0  0  0
   11.2033   -2.6986    0.0000 H   0  0  0  0  0  0  0  0  0  0  0  0
    9.3023   -2.0772    0.0000 H   0  0  0  0  0  0  0  0  0  0  0  0
    8.5204   -2.4739    0.0000 H   0  0  0  0  0  0  0  0  0  0  0  0
    8.9171   -3.2559    0.0000 H   0  0  0  0  0  0  0  0  0  0  0  0
   13.7449   -1.0642    0.0000 H   0  0  0  0  0  0  0  0  0  0  0  0
   14.2237   -0.3297    0.0000 H   0  0  0  0  0  0  0  0  0  0  0  0
   13.4892    0.1492    0.0000 H   0  0  0  0  0  0  0  0  0  0  0  0
   13.0390    0.4426    0.0000 H   0  0  0  0  0  0  0  0  0  0  0  0
   12.3045    0.9215    0.0000 H   0  0  0  0  0  0  0  0  0  0  0  0
   11.8256    0.1869    0.0000 H   0  0  0  0  0  0  0  0  0  0  0  0
   12.2381   -1.7701    0.0000 H   0  0  0  0  0  0  0  0  0  0  0  0
   12.9726   -2.2489    0.0000 H   0  0  0  0  0  0  0  0  0  0  0  0
   13.4514   -1.5144    0.0000 H   0  0  0  0  0  0  0  0  0  0  0  0
    3.1951   -1.8210    0.0000 H   0  0  0  0  0  0  0  0  0  0  0  0
    2.3100    1.0260    0.0000 H   0  0  0  0  0  0  0  0  0  0  0  0
    1.4631    0.7990    0.0000 H   0  0  0  0  0  0  0  0  0  0  0  0
    1.6900   -0.0479    0.0000 H   0  0  0  0  0  0  0  0  0  0  0  0
    1.8291   -0.5670    0.0000 H   0  0  0  0  0  0  0  0  0  0  0  0
    2.0560   -1.4139    0.0000 H   0  0  0  0  0  0  0  0  0  0  0  0
    2.9030   -1.1870    0.0000 H   0  0  0  0  0  0  0  0  0  0  0  0
    3.9030    0.5451    0.0000 H   0  0  0  0  0  0  0  0  0  0  0  0
    3.6760    1.3920    0.0000 H   0  0  0  0  0  0  0  0  0  0  0  0
    2.8291    1.1651    0.0000 H   0  0  0  0  0  0  0  0  0  0  0  0
    4.5981   -2.6310    0.0000 H   0  0  0  0  0  0  0  0  0  0  0  0
    7.5349    3.2347    0.0000 H   0  0  0  0  0  0  0  0  0  0  0  0
    5.4896    4.3418    0.0000 H   0  0  0  0  0  0  0  0  0  0  0  0
    4.6140    4.3892    0.0000 H   0  0  0  0  0  0  0  0  0  0  0  0
    4.5666    3.5137    0.0000 H   0  0  0  0  0  0  0  0  0  0  0  0
    6.8543    3.3898    0.0000 H   0  0  0  0  0  0  0  0  0  0  0  0
    6.9017    4.2653    0.0000 H   0  0  0  0  0  0  0  0  0  0  0  0
    6.0262    4.3127    0.0000 H   0  0  0  0  0  0  0  0  0  0  0  0
    4.5376    2.9771    0.0000 H   0  0  0  0  0  0  0  0  0  0  0  0
    4.4902    2.1015    0.0000 H   0  0  0  0  0  0  0  0  0  0  0  0
    5.3657    2.0541    0.0000 H   0  0  0  0  0  0  0  0  0  0  0  0
    8.6168    2.0289    0.0000 H   0  0  0  0  0  0  0  0  0  0  0  0
   12.6239   -2.4369    0.0000 H   0  0  0  0  0  0  0  0  0  0  0  0
  1 19  1  0  0  0  0
  1 22  1  0  0  0  0
  2 21  1  0  0  0  0
  2 42  1  0  0  0  0
  3 17  1  0  0  0  0
  3 88  1  0  0  0  0
  4 22  2  0  0  0  0
  5 42  2  0  0  0  0
  6 10  1  0  0  0  0
  6 14  1  0  0  0  0
  6 22  1  0  0  0  0
  6 43  1  0  0  0  0
  7 11  1  0  0  0  0
  7 26  1  0  0  0  0
  7 27  1  0  0  0  0
  7 28  1  0  0  0  0
  8 12  1  0  0  0  0
  8 29  1  0  0  0  0
  8 30  1  0  0  0  0
  8 31  1  0  0  0  0
  9 15  1  0  0  0  0
  9 33  1  0  0  0  0
  9 34  1  0  0  0  0
  9 35  1  0  0  0  0
 10 18  1  0  0  0  0
 10 19  2  0  0  0  0
 11 17  2  0  0  0  0
 11 23  1  0  0  0  0
 12 17  1  0  0  0  0
 12 24  2  0  0  0  0
 13 16  1  0  0  0  0
 13 38  1  0  0  0  0
 13 39  1  0  0  0  0
 13 40  1  0  0  0  0
 14 20  1  0  0  0  0
 14 21  2  0  0  0  0
 15 18  2  0  0  0  0
 15 32  1  0  0  0  0
 16 20  2  0  0  0  0
 16 37  1  0  0  0  0
 18 44  1  0  0  0  0
 19 36  1  0  0  0  0
 20 45  1  0  0  0  0
 21 41  1  0  0  0  0
 23 25  2  0  0  0  0
 23 46  1  0  0  0  0
 24 25  1  0  0  0  0
 24 47  1  0  0  0  0
 25 42  1  0  0  0  0
 26 48  1  0  0  0  0
 26 49  1  0  0  0  0
 26 50  1  0  0  0  0
 27 51  1  0  0  0  0
 27 52  1  0  0  0  0
 27 53  1  0  0  0  0
 28 54  1  0  0  0  0
 28 55  1  0  0  0  0
 28 56  1  0  0  0  0
 29 57  1  0  0  0  0
 29 58  1  0  0  0  0
 29 59  1  0  0  0  0
 30 60  1  0  0  0  0
 30 61  1  0  0  0  0
 30 62  1  0  0  0  0
 31 63  1  0  0  0  0
 31 64  1  0  0  0  0
 31 65  1  0  0  0  0
 32 36  2  0  0  0  0
 32 66  1  0  0  0  0
 33 67  1  0  0  0  0
 33 68  1  0  0  0  0
 33 69  1  0  0  0  0
 34 70  1  0  0  0  0
 34 71  1  0  0  0  0
 34 72  1  0  0  0  0
 35 73  1  0  0  0  0
 35 74  1  0  0  0  0
 35 75  1  0  0  0  0
 36 76  1  0  0  0  0
 37 41  2  0  0  0  0
 37 77  1  0  0  0  0
 38 78  1  0  0  0  0
 38 79  1  0  0  0  0
 38 80  1  0  0  0  0
 39 81  1  0  0  0  0
 39 82  1  0  0  0  0
 39 83  1  0  0  0  0
 40 84  1  0  0  0  0
 40 85  1  0  0  0  0
 40 86  1  0  0  0  0
 41 87  1  0  0  0  0
M  END
> <PUBCHEM_COMPOUND_CID>
72942006

> <PUBCHEM_COMPOUND_CANONICALIZED>
1

> <PUBCHEM_CACTVS_COMPLEXITY>
948

> <PUBCHEM_CACTVS_HBOND_ACCEPTOR>
5

> <PUBCHEM_CACTVS_HBOND_DONOR>
1

> <PUBCHEM_CACTVS_ROTATABLE_BOND>
8

> <PUBCHEM_CACTVS_SUBSKEYS>
AAADcfB8OAAAAAAAAAAAAAAAAAAAASAAAAAwYMAAAAAAAEgBUAAAGgAACAAADwSAmAAyDoAABgCIAiDSCAACCAAkIAAIiAEGCMgMJjKGNRqCeyCkwBEIuYfK7PzPoAACAAAIAABAAAQAABAAAAAAAAAAAA==

> <PUBCHEM_IUPAC_OPENEYE_NAME>
[4-tert-butyl-2-(5-tert-butyl-2-oxo-3H-benzofuran-3-yl)phenyl] 3,5-ditert-butyl-4-hydroxy-benzoate

> <PUBCHEM_IUPAC_CAS_NAME>
3,5-ditert-butyl-4-hydroxybenzoic acid [4-tert-butyl-2-(5-tert-butyl-2-oxo-3H-benzofuran-3-yl)phenyl] ester

> <PUBCHEM_IUPAC_NAME_MARKUP>
[4-<I>tert</I>-butyl-2-(5-<I>tert</I>-butyl-2-oxo-3<I>H</I>-1-benzofuran-3-yl)phenyl] 3,5-di<I>tert</I>-butyl-4-hydroxybenzoate

> <PUBCHEM_IUPAC_NAME>
[4-tert-butyl-2-(5-tert-butyl-2-oxo-3H-1-benzofuran-3-yl)phenyl] 3,5-ditert-butyl-4-hydroxybenzoate

> <PUBCHEM_IUPAC_SYSTEMATIC_NAME>
[4-tert-butyl-2-(5-tert-butyl-2-oxidanylidene-3H-1-benzofuran-3-yl)phenyl] 3,5-ditert-butyl-4-oxidanyl-benzoate

> <PUBCHEM_IUPAC_TRADITIONAL_NAME>
3,5-ditert-butyl-4-hydroxy-benzoic acid [4-tert-butyl-2-(5-tert-butyl-2-keto-coumaran-3-yl)phenyl] ester

> <PUBCHEM_IUPAC_INCHI>
InChI=1S/C37H46O5/c1-34(2,3)22-13-15-28(24(19-22)30-25-20-23(35(4,5)6)14-16-29(25)42-33(30)40)41-32(39)21-17-26(36(7,8)9)31(38)27(18-21)37(10,11)12/h13-20,30,38H,1-12H3

> <PUBCHEM_IUPAC_INCHIKEY>
BWBGTUYNAMKJAI-UHFFFAOYSA-N

> <PUBCHEM_XLOGP3_AA>
10.8

> <PUBCHEM_EXACT_MASS>
570.33452456

> <PUBCHEM_MOLECULAR_FORMULA>
C37H46O5

> <PUBCHEM_MOLECULAR_WEIGHT>
570.8

> <PUBCHEM_SMILES>
CC(C)(C)C1=CC2=C(C=C1)OC(=O)C2C3=C(C=CC(=C3)C(C)(C)C)OC(=O)C4=CC(=C(C(=C4)C(C)(C)C)O)C(C)(C)C

> <PUBCHEM_OPENEYE_CAN_SMILES>
CC(C)(C)C1=CC2=C(C=C1)OC(=O)C2C3=C(C=CC(=C3)C(C)(C)C)OC(=O)C4=CC(=C(C(=C4)C(C)(C)C)O)C(C)(C)C

> <PUBCHEM_OPENEYE_ISO_SMILES>
CC(C)(C)C1=CC2=C(C=C1)OC(=O)C2C3=C(C=CC(=C3)C(C)(C)C)OC(=O)C4=CC(=C(C(=C4)C(C)(C)C)O)C(C)(C)C

> <PUBCHEM_CACTVS_TPSA>
72.8

> <PUBCHEM_MONOISOTOPIC_WEIGHT>
570.33452456

> <PUBCHEM_TOTAL_CHARGE>
0

> <PUBCHEM_HEAVY_ATOM_COUNT>
42

> <PUBCHEM_ATOM_DEF_STEREO_COUNT>
0

> <PUBCHEM_ATOM_UDEF_STEREO_COUNT>
1

> <PUBCHEM_BOND_DEF_STEREO_COUNT>
0

> <PUBCHEM_BOND_UDEF_STEREO_COUNT>
0

> <PUBCHEM_ISOTOPIC_ATOM_COUNT>
0

> <PUBCHEM_COMPONENT_COUNT>
1

> <PUBCHEM_CACTVS_TAUTO_COUNT>
-1

> <PUBCHEM_COORDINATE_TYPE>
1
5
255

> <PUBCHEM_BONDANNOTATIONS>
10  18  8
10  19  8
11  17  8
11  23  8
12  17  8
12  24  8
14  20  8
14  21  8
15  18  8
15  32  8
16  20  8
16  37  8
19  36  8
21  41  8
23  25  8
24  25  8
32  36  8
37  41  8
6  14  3

$$$$
