74370
  -OEChem-04042505342D

135138  0     0  0  0  0  0  0999 V2000
    2.8660    0.6550    0.0000 O   0  0  0  0  0  0  0  0  0  0  0  0
   11.5263    3.6550    0.0000 O   0  0  0  0  0  0  0  0  0  0  0  0
    9.7942   -5.3450    0.0000 O   0  0  0  0  0  0  0  0  0  0  0  0
    7.1962   -0.8450    0.0000 C   0  0  0  0  0  0  0  0  0  0  0  0
    8.0622    0.6550    0.0000 C   0  0  0  0  0  0  0  0  0  0  0  0
    8.9282   -0.8450    0.0000 C   0  0  0  0  0  0  0  0  0  0  0  0
    7.1962    0.1550    0.0000 C   0  0  0  0  0  0  0  0  0  0  0  0
    8.0622   -1.3450    0.0000 C   0  0  0  0  0  0  0  0  0  0  0  0
    8.9282    0.1550    0.0000 C   0  0  0  0  0  0  0  0  0  0  0  0
    6.3301   -1.3450    0.0000 C   0  0  0  0  0  0  0  0  0  0  0  0
    8.0622    1.6550    0.0000 C   0  0  0  0  0  0  0  0  0  0  0  0
    9.7942   -1.3450    0.0000 C   0  0  0  0  0  0  0  0  0  0  0  0
    2.8660   -1.3450    0.0000 C   0  0  0  0  0  0  0  0  0  0  0  0
    9.7942    4.6550    0.0000 C   0  0  0  0  0  0  0  0  0  0  0  0
   11.5263   -4.3450    0.0000 C   0  0  0  0  0  0  0  0  0  0  0  0
    4.5981    1.6550    0.0000 C   0  0  0  0  0  0  0  0  0  0  0  0
   11.5263    1.6550    0.0000 C   0  0  0  0  0  0  0  0  0  0  0  0
    8.0622   -4.3450    0.0000 C   0  0  0  0  0  0  0  0  0  0  0  0
    5.4641   -0.8450    0.0000 C   0  0  0  0  0  0  0  0  0  0  0  0
    8.9282    2.1550    0.0000 C   0  0  0  0  0  0  0  0  0  0  0  0
    9.7942   -2.3450    0.0000 C   0  0  0  0  0  0  0  0  0  0  0  0
    3.7320   -0.8450    0.0000 C   0  0  0  0  0  0  0  0  0  0  0  0
    9.7942    3.6550    0.0000 C   0  0  0  0  0  0  0  0  0  0  0  0
   10.6603   -3.8450    0.0000 C   0  0  0  0  0  0  0  0  0  0  0  0
    4.5981    0.6550    0.0000 C   0  0  0  0  0  0  0  0  0  0  0  0
   10.6603    2.1550    0.0000 C   0  0  0  0  0  0  0  0  0  0  0  0
    8.9282   -3.8450    0.0000 C   0  0  0  0  0  0  0  0  0  0  0  0
    3.7320    0.1550    0.0000 C   0  0  0  0  0  0  0  0  0  0  0  0
   10.6603    3.1550    0.0000 C   0  0  0  0  0  0  0  0  0  0  0  0
    9.7942   -4.3450    0.0000 C   0  0  0  0  0  0  0  0  0  0  0  0
    4.5981   -1.3450    0.0000 C   0  0  0  0  0  0  0  0  0  0  0  0
    8.9282    3.1550    0.0000 C   0  0  0  0  0  0  0  0  0  0  0  0
   10.6603   -2.8450    0.0000 C   0  0  0  0  0  0  0  0  0  0  0  0
    5.4641    0.1550    0.0000 C   0  0  0  0  0  0  0  0  0  0  0  0
    9.7942    1.6550    0.0000 C   0  0  0  0  0  0  0  0  0  0  0  0
    8.9282   -2.8450    0.0000 C   0  0  0  0  0  0  0  0  0  0  0  0
    6.3301    0.6550    0.0000 C   0  0  0  0  0  0  0  0  0  0  0  0
    8.0622   -2.3450    0.0000 C   0  0  0  0  0  0  0  0  0  0  0  0
    9.7942    0.6550    0.0000 C   0  0  0  0  0  0  0  0  0  0  0  0
    2.0000   -1.8450    0.0000 C   0  0  0  0  0  0  0  0  0  0  0  0
    3.3660   -2.2110    0.0000 C   0  0  0  0  0  0  0  0  0  0  0  0
    2.3660   -0.4790    0.0000 C   0  0  0  0  0  0  0  0  0  0  0  0
    9.7942    5.6550    0.0000 C   0  0  0  0  0  0  0  0  0  0  0  0
    8.7942    4.6550    0.0000 C   0  0  0  0  0  0  0  0  0  0  0  0
   10.7942    4.6550    0.0000 C   0  0  0  0  0  0  0  0  0  0  0  0
   12.3923   -4.8450    0.0000 C   0  0  0  0  0  0  0  0  0  0  0  0
   12.0263   -3.4790    0.0000 C   0  0  0  0  0  0  0  0  0  0  0  0
   11.0263   -5.2110    0.0000 C   0  0  0  0  0  0  0  0  0  0  0  0
    4.5981    2.6550    0.0000 C   0  0  0  0  0  0  0  0  0  0  0  0
    3.5981    1.6550    0.0000 C   0  0  0  0  0  0  0  0  0  0  0  0
    5.5981    1.6550    0.0000 C   0  0  0  0  0  0  0  0  0  0  0  0
   12.3923    1.1550    0.0000 C   0  0  0  0  0  0  0  0  0  0  0  0
   12.0263    2.5210    0.0000 C   0  0  0  0  0  0  0  0  0  0  0  0
   11.0263    0.7890    0.0000 C   0  0  0  0  0  0  0  0  0  0  0  0
    7.1962   -4.8450    0.0000 C   0  0  0  0  0  0  0  0  0  0  0  0
    8.5622   -5.2110    0.0000 C   0  0  0  0  0  0  0  0  0  0  0  0
    7.5622   -3.4790    0.0000 C   0  0  0  0  0  0  0  0  0  0  0  0
    5.9316   -1.8200    0.0000 H   0  0  0  0  0  0  0  0  0  0  0  0
    6.7287   -1.8200    0.0000 H   0  0  0  0  0  0  0  0  0  0  0  0
    7.8501    2.2376    0.0000 H   0  0  0  0  0  0  0  0  0  0  0  0
    7.4516    1.5473    0.0000 H   0  0  0  0  0  0  0  0  0  0  0  0
   10.4048   -1.4527    0.0000 H   0  0  0  0  0  0  0  0  0  0  0  0
   10.0063   -0.7624    0.0000 H   0  0  0  0  0  0  0  0  0  0  0  0
    4.5981   -1.9650    0.0000 H   0  0  0  0  0  0  0  0  0  0  0  0
    8.3913    3.4650    0.0000 H   0  0  0  0  0  0  0  0  0  0  0  0
   11.1972   -2.5350    0.0000 H   0  0  0  0  0  0  0  0  0  0  0  0
    6.0010    0.4650    0.0000 H   0  0  0  0  0  0  0  0  0  0  0  0
    9.7942    1.0350    0.0000 H   0  0  0  0  0  0  0  0  0  0  0  0
    8.3913   -2.5350    0.0000 H   0  0  0  0  0  0  0  0  0  0  0  0
    6.6401    1.1919    0.0000 H   0  0  0  0  0  0  0  0  0  0  0  0
    5.7932    0.9650    0.0000 H   0  0  0  0  0  0  0  0  0  0  0  0
    6.0201    0.1181    0.0000 H   0  0  0  0  0  0  0  0  0  0  0  0
    7.4422   -2.3450    0.0000 H   0  0  0  0  0  0  0  0  0  0  0  0
    8.0622   -2.9650    0.0000 H   0  0  0  0  0  0  0  0  0  0  0  0
    8.6822   -2.3450    0.0000 H   0  0  0  0  0  0  0  0  0  0  0  0
   10.1042    0.1181    0.0000 H   0  0  0  0  0  0  0  0  0  0  0  0
   10.3312    0.9650    0.0000 H   0  0  0  0  0  0  0  0  0  0  0  0
    9.4842    1.1919    0.0000 H   0  0  0  0  0  0  0  0  0  0  0  0
    1.6900   -1.3081    0.0000 H   0  0  0  0  0  0  0  0  0  0  0  0
    1.4631   -2.1550    0.0000 H   0  0  0  0  0  0  0  0  0  0  0  0
    2.3100   -2.3819    0.0000 H   0  0  0  0  0  0  0  0  0  0  0  0
    2.8291   -2.5210    0.0000 H   0  0  0  0  0  0  0  0  0  0  0  0
    3.6760   -2.7480    0.0000 H   0  0  0  0  0  0  0  0  0  0  0  0
    3.9030   -1.9010    0.0000 H   0  0  0  0  0  0  0  0  0  0  0  0
    2.9030   -0.1690    0.0000 H   0  0  0  0  0  0  0  0  0  0  0  0
    2.0560    0.0580    0.0000 H   0  0  0  0  0  0  0  0  0  0  0  0
    1.8291   -0.7890    0.0000 H   0  0  0  0  0  0  0  0  0  0  0  0
   10.4142    5.6550    0.0000 H   0  0  0  0  0  0  0  0  0  0  0  0
    9.7942    6.2750    0.0000 H   0  0  0  0  0  0  0  0  0  0  0  0
    9.1742    5.6550    0.0000 H   0  0  0  0  0  0  0  0  0  0  0  0
    8.7942    5.2750    0.0000 H   0  0  0  0  0  0  0  0  0  0  0  0
    8.1742    4.6550    0.0000 H   0  0  0  0  0  0  0  0  0  0  0  0
    8.7942    4.0350    0.0000 H   0  0  0  0  0  0  0  0  0  0  0  0
   10.7942    4.0350    0.0000 H   0  0  0  0  0  0  0  0  0  0  0  0
   11.4142    4.6550    0.0000 H   0  0  0  0  0  0  0  0  0  0  0  0
   10.7942    5.2750    0.0000 H   0  0  0  0  0  0  0  0  0  0  0  0
   12.0823   -5.3819    0.0000 H   0  0  0  0  0  0  0  0  0  0  0  0
   12.9292   -5.1550    0.0000 H   0  0  0  0  0  0  0  0  0  0  0  0
   12.7023   -4.3081    0.0000 H   0  0  0  0  0  0  0  0  0  0  0  0
   12.5632   -3.7890    0.0000 H   0  0  0  0  0  0  0  0  0  0  0  0
   12.3363   -2.9420    0.0000 H   0  0  0  0  0  0  0  0  0  0  0  0
   11.4893   -3.1690    0.0000 H   0  0  0  0  0  0  0  0  0  0  0  0
   10.4893   -4.9010    0.0000 H   0  0  0  0  0  0  0  0  0  0  0  0
   10.7163   -5.7480    0.0000 H   0  0  0  0  0  0  0  0  0  0  0  0
   11.5632   -5.5210    0.0000 H   0  0  0  0  0  0  0  0  0  0  0  0
    5.2181    2.6550    0.0000 H   0  0  0  0  0  0  0  0  0  0  0  0
    4.5981    3.2750    0.0000 H   0  0  0  0  0  0  0  0  0  0  0  0
    3.9781    2.6550    0.0000 H   0  0  0  0  0  0  0  0  0  0  0  0
    3.5981    2.2750    0.0000 H   0  0  0  0  0  0  0  0  0  0  0  0
    2.9781    1.6550    0.0000 H   0  0  0  0  0  0  0  0  0  0  0  0
    3.5981    1.0350    0.0000 H   0  0  0  0  0  0  0  0  0  0  0  0
    5.5981    1.0350    0.0000 H   0  0  0  0  0  0  0  0  0  0  0  0
    6.2181    1.6550    0.0000 H   0  0  0  0  0  0  0  0  0  0  0  0
    5.5981    2.2750    0.0000 H   0  0  0  0  0  0  0  0  0  0  0  0
   12.0823    0.6181    0.0000 H   0  0  0  0  0  0  0  0  0  0  0  0
   12.9292    0.8450    0.0000 H   0  0  0  0  0  0  0  0  0  0  0  0
   12.7023    1.6919    0.0000 H   0  0  0  0  0  0  0  0  0  0  0  0
   12.5632    2.2110    0.0000 H   0  0  0  0  0  0  0  0  0  0  0  0
   12.3363    3.0580    0.0000 H   0  0  0  0  0  0  0  0  0  0  0  0
   11.4893    2.8310    0.0000 H   0  0  0  0  0  0  0  0  0  0  0  0
   10.4893    1.0990    0.0000 H   0  0  0  0  0  0  0  0  0  0  0  0
   10.7163    0.2520    0.0000 H   0  0  0  0  0  0  0  0  0  0  0  0
   11.5632    0.4790    0.0000 H   0  0  0  0  0  0  0  0  0  0  0  0
    6.8862   -4.3081    0.0000 H   0  0  0  0  0  0  0  0  0  0  0  0
    6.6592   -5.1550    0.0000 H   0  0  0  0  0  0  0  0  0  0  0  0
    7.5062   -5.3819    0.0000 H   0  0  0  0  0  0  0  0  0  0  0  0
    8.0252   -5.5210    0.0000 H   0  0  0  0  0  0  0  0  0  0  0  0
    8.8722   -5.7480    0.0000 H   0  0  0  0  0  0  0  0  0  0  0  0
    9.0991   -4.9010    0.0000 H   0  0  0  0  0  0  0  0  0  0  0  0
    8.0991   -3.1690    0.0000 H   0  0  0  0  0  0  0  0  0  0  0  0
    7.2522   -2.9420    0.0000 H   0  0  0  0  0  0  0  0  0  0  0  0
    7.0252   -3.7890    0.0000 H   0  0  0  0  0  0  0  0  0  0  0  0
    2.3291    0.3450    0.0000 H   0  0  0  0  0  0  0  0  0  0  0  0
   11.5263    4.2750    0.0000 H   0  0  0  0  0  0  0  0  0  0  0  0
   10.3312   -5.6550    0.0000 H   0  0  0  0  0  0  0  0  0  0  0  0
  1 28  1  0  0  0  0
  1133  1  0  0  0  0
  2 29  1  0  0  0  0
  2134  1  0  0  0  0
  3 30  1  0  0  0  0
  3135  1  0  0  0  0
  4  7  2  0  0  0  0
  4  8  1  0  0  0  0
  4 10  1  0  0  0  0
  5  7  1  0  0  0  0
  5  9  2  0  0  0  0
  5 11  1  0  0  0  0
  6  8  2  0  0  0  0
  6  9  1  0  0  0  0
  6 12  1  0  0  0  0
  7 37  1  0  0  0  0
  8 38  1  0  0  0  0
  9 39  1  0  0  0  0
 10 19  1  0  0  0  0
 10 58  1  0  0  0  0
 10 59  1  0  0  0  0
 11 20  1  0  0  0  0
 11 60  1  0  0  0  0
 11 61  1  0  0  0  0
 12 21  1  0  0  0  0
 12 62  1  0  0  0  0
 12 63  1  0  0  0  0
 13 22  1  0  0  0  0
 13 40  1  0  0  0  0
 13 41  1  0  0  0  0
 13 42  1  0  0  0  0
 14 23  1  0  0  0  0
 14 43  1  0  0  0  0
 14 44  1  0  0  0  0
 14 45  1  0  0  0  0
 15 24  1  0  0  0  0
 15 46  1  0  0  0  0
 15 47  1  0  0  0  0
 15 48  1  0  0  0  0
 16 25  1  0  0  0  0
 16 49  1  0  0  0  0
 16 50  1  0  0  0  0
 16 51  1  0  0  0  0
 17 26  1  0  0  0  0
 17 52  1  0  0  0  0
 17 53  1  0  0  0  0
 17 54  1  0  0  0  0
 18 27  1  0  0  0  0
 18 55  1  0  0  0  0
 18 56  1  0  0  0  0
 18 57  1  0  0  0  0
 19 31  2  0  0  0  0
 19 34  1  0  0  0  0
 20 32  2  0  0  0  0
 20 35  1  0  0  0  0
 21 33  2  0  0  0  0
 21 36  1  0  0  0  0
 22 28  2  0  0  0  0
 22 31  1  0  0  0  0
 23 29  2  0  0  0  0
 23 32  1  0  0  0  0
 24 30  2  0  0  0  0
 24 33  1  0  0  0  0
 25 28  1  0  0  0  0
 25 34  2  0  0  0  0
 26 29  1  0  0  0  0
 26 35  2  0  0  0  0
 27 30  1  0  0  0  0
 27 36  2  0  0  0  0
 31 64  1  0  0  0  0
 32 65  1  0  0  0  0
 33 66  1  0  0  0  0
 34 67  1  0  0  0  0
 35 68  1  0  0  0  0
 36 69  1  0  0  0  0
 37 70  1  0  0  0  0
 37 71  1  0  0  0  0
 37 72  1  0  0  0  0
 38 73  1  0  0  0  0
 38 74  1  0  0  0  0
 38 75  1  0  0  0  0
 39 76  1  0  0  0  0
 39 77  1  0  0  0  0
 39 78  1  0  0  0  0
 40 79  1  0  0  0  0
 40 80  1  0  0  0  0
 40 81  1  0  0  0  0
 41 82  1  0  0  0  0
 41 83  1  0  0  0  0
 41 84  1  0  0  0  0
 42 85  1  0  0  0  0
 42 86  1  0  0  0  0
 42 87  1  0  0  0  0
 43 88  1  0  0  0  0
 43 89  1  0  0  0  0
 43 90  1  0  0  0  0
 44 91  1  0  0  0  0
 44 92  1  0  0  0  0
 44 93  1  0  0  0  0
 45 94  1  0  0  0  0
 45 95  1  0  0  0  0
 45 96  1  0  0  0  0
 46 97  1  0  0  0  0
 46 98  1  0  0  0  0
 46 99  1  0  0  0  0
 47100  1  0  0  0  0
 47101  1  0  0  0  0
 47102  1  0  0  0  0
 48103  1  0  0  0  0
 48104  1  0  0  0  0
 48105  1  0  0  0  0
 49106  1  0  0  0  0
 49107  1  0  0  0  0
 49108  1  0  0  0  0
 50109  1  0  0  0  0
 50110  1  0  0  0  0
 50111  1  0  0  0  0
 51112  1  0  0  0  0
 51113  1  0  0  0  0
 51114  1  0  0  0  0
 52115  1  0  0  0  0
 52116  1  0  0  0  0
 52117  1  0  0  0  0
 53118  1  0  0  0  0
 53119  1  0  0  0  0
 53120  1  0  0  0  0
 54121  1  0  0  0  0
 54122  1  0  0  0  0
 54123  1  0  0  0  0
 55124  1  0  0  0  0
 55125  1  0  0  0  0
 55126  1  0  0  0  0
 56127  1  0  0  0  0
 56128  1  0  0  0  0
 56129  1  0  0  0  0
 57130  1  0  0  0  0
 57131  1  0  0  0  0
 57132  1  0  0  0  0
M  END
> <PUBCHEM_COMPOUND_CID>
74370

> <PUBCHEM_COMPOUND_CANONICALIZED>
1

> <PUBCHEM_CACTVS_COMPLEXITY>
1030

> <PUBCHEM_CACTVS_HBOND_ACCEPTOR>
3

> <PUBCHEM_CACTVS_HBOND_DONOR>
3

> <PUBCHEM_CACTVS_ROTATABLE_BOND>
12

> <PUBCHEM_CACTVS_SUBSKEYS>
AAADcfB8MAAAAAAAAAAAAAAAAAAAAAAAAAAwYMGAAAAAAAABVAAAGgAACAAADgSAmAAyBoAAAgCAAiBCAAACAAAgIAAAiAAECIgIJiKCERKAcAAkwBEImAeAwOAP4AACAAAYAADAAAQAADAAAAAAAAAAAA==

> <PUBCHEM_IUPAC_OPENEYE_NAME>
4-[[3,5-bis[(3,5-ditert-butyl-4-hydroxy-phenyl)methyl]-2,4,6-trimethyl-phenyl]methyl]-2,6-ditert-butyl-phenol

> <PUBCHEM_IUPAC_CAS_NAME>
4-[[3,5-bis[(3,5-ditert-butyl-4-hydroxyphenyl)methyl]-2,4,6-trimethylphenyl]methyl]-2,6-ditert-butylphenol

> <PUBCHEM_IUPAC_NAME_MARKUP>
4-[[3,5-bis[(3,5-di<I>tert</I>-butyl-4-hydroxyphenyl)methyl]-2,4,6-trimethylphenyl]methyl]-2,6-di<I>tert</I>-butylphenol

> <PUBCHEM_IUPAC_NAME>
4-[[3,5-bis[(3,5-ditert-butyl-4-hydroxyphenyl)methyl]-2,4,6-trimethylphenyl]methyl]-2,6-ditert-butylphenol

> <PUBCHEM_IUPAC_SYSTEMATIC_NAME>
4-[[3,5-bis[(3,5-ditert-butyl-4-oxidanyl-phenyl)methyl]-2,4,6-trimethyl-phenyl]methyl]-2,6-ditert-butyl-phenol

> <PUBCHEM_IUPAC_TRADITIONAL_NAME>
4-[3,5-bis(3,5-ditert-butyl-4-hydroxy-benzyl)-2,4,6-trimethyl-benzyl]-2,6-ditert-butyl-phenol

> <PUBCHEM_IUPAC_INCHI>
InChI=1S/C54H78O3/c1-31-37(22-34-25-40(49(4,5)6)46(55)41(26-34)50(7,8)9)32(2)39(24-36-29-44(53(16,17)18)48(57)45(30-36)54(19,20)21)33(3)38(31)23-35-27-42(51(10,11)12)47(56)43(28-35)52(13,14)15/h25-30,55-57H,22-24H2,1-21H3

> <PUBCHEM_IUPAC_INCHIKEY>
VSAWBBYYMBQKIK-UHFFFAOYSA-N

> <PUBCHEM_XLOGP3_AA>
17.7

> <PUBCHEM_EXACT_MASS>
774.59509635

> <PUBCHEM_MOLECULAR_FORMULA>
C54H78O3

> <PUBCHEM_MOLECULAR_WEIGHT>
775.2

> <PUBCHEM_SMILES>
CC1=C(C(=C(C(=C1CC2=CC(=C(C(=C2)C(C)(C)C)O)C(C)(C)C)C)CC3=CC(=C(C(=C3)C(C)(C)C)O)C(C)(C)C)C)CC4=CC(=C(C(=C4)C(C)(C)C)O)C(C)(C)C

> <PUBCHEM_OPENEYE_CAN_SMILES>
CC1=C(C(=C(C(=C1CC2=CC(=C(C(=C2)C(C)(C)C)O)C(C)(C)C)C)CC3=CC(=C(C(=C3)C(C)(C)C)O)C(C)(C)C)C)CC4=CC(=C(C(=C4)C(C)(C)C)O)C(C)(C)C

> <PUBCHEM_OPENEYE_ISO_SMILES>
CC1=C(C(=C(C(=C1CC2=CC(=C(C(=C2)C(C)(C)C)O)C(C)(C)C)C)CC3=CC(=C(C(=C3)C(C)(C)C)O)C(C)(C)C)C)CC4=CC(=C(C(=C4)C(C)(C)C)O)C(C)(C)C

> <PUBCHEM_CACTVS_TPSA>
60.7

> <PUBCHEM_MONOISOTOPIC_WEIGHT>
774.59509635

> <PUBCHEM_TOTAL_CHARGE>
0

> <PUBCHEM_HEAVY_ATOM_COUNT>
57

> <PUBCHEM_ATOM_DEF_STEREO_COUNT>
0

> <PUBCHEM_ATOM_UDEF_STEREO_COUNT>
0

> <PUBCHEM_BOND_DEF_STEREO_COUNT>
0

> <PUBCHEM_BOND_UDEF_STEREO_COUNT>
0

> <PUBCHEM_ISOTOPIC_ATOM_COUNT>
0

> <PUBCHEM_COMPONENT_COUNT>
1

> <PUBCHEM_CACTVS_TAUTO_COUNT>
-1

> <PUBCHEM_COORDINATE_TYPE>
1
5
255

> <PUBCHEM_BONDANNOTATIONS>
19  31  8
19  34  8
20  32  8
20  35  8
21  33  8
21  36  8
22  28  8
22  31  8
23  29  8
23  32  8
24  30  8
24  33  8
25  28  8
25  34  8
26  29  8
26  35  8
27  30  8
27  36  8
4  7  8
4  8  8
5  7  8
5  9  8
6  8  8
6  9  8

$$$$
