75498
  -OEChem-04042505472D

 30 33  0     0  0  0  0  0  0999 V2000
   10.2558   -0.1224    0.0000 O   0  0  0  0  0  0  0  0  0  0  0  0
    2.0000   -0.1224    0.0000 O   0  0  0  0  0  0  0  0  0  0  0  0
    6.1279    1.8776    0.0000 O   0  0  0  0  0  0  0  0  0  0  0  0
    9.9829    1.6329    0.0000 O   0  0  0  0  0  0  0  0  0  0  0  0
    2.2729    1.6329    0.0000 O   0  0  0  0  0  0  0  0  0  0  0  0
    9.9829   -1.8776    0.0000 O   0  0  0  0  0  0  0  0  0  0  0  0
    2.2729   -1.8776    0.0000 O   0  0  0  0  0  0  0  0  0  0  0  0
    6.9939    0.3776    0.0000 C   0  0  0  0  0  0  0  0  0  0  0  0
    5.2619    0.3776    0.0000 C   0  0  0  0  0  0  0  0  0  0  0  0
    8.7260    0.3776    0.0000 C   0  0  0  0  0  0  0  0  0  0  0  0
    3.5298    0.3776    0.0000 C   0  0  0  0  0  0  0  0  0  0  0  0
    8.7260   -0.6224    0.0000 C   0  0  0  0  0  0  0  0  0  0  0  0
    3.5298   -0.6224    0.0000 C   0  0  0  0  0  0  0  0  0  0  0  0
    6.1279    0.8776    0.0000 C   0  0  0  0  0  0  0  0  0  0  0  0
    7.8600    0.8776    0.0000 C   0  0  0  0  0  0  0  0  0  0  0  0
    4.3958    0.8776    0.0000 C   0  0  0  0  0  0  0  0  0  0  0  0
    6.9939   -0.6224    0.0000 C   0  0  0  0  0  0  0  0  0  0  0  0
    5.2619   -0.6224    0.0000 C   0  0  0  0  0  0  0  0  0  0  0  0
    7.8600   -1.1224    0.0000 C   0  0  0  0  0  0  0  0  0  0  0  0
    4.3958   -1.1224    0.0000 C   0  0  0  0  0  0  0  0  0  0  0  0
    9.6722    0.6824    0.0000 C   0  0  0  0  0  0  0  0  0  0  0  0
    2.5836    0.6824    0.0000 C   0  0  0  0  0  0  0  0  0  0  0  0
    9.6722   -0.9271    0.0000 C   0  0  0  0  0  0  0  0  0  0  0  0
    2.5836   -0.9271    0.0000 C   0  0  0  0  0  0  0  0  0  0  0  0
    7.8600    1.4976    0.0000 H   0  0  0  0  0  0  0  0  0  0  0  0
    4.3958    1.4976    0.0000 H   0  0  0  0  0  0  0  0  0  0  0  0
    6.4570   -0.9324    0.0000 H   0  0  0  0  0  0  0  0  0  0  0  0
    5.7988   -0.9324    0.0000 H   0  0  0  0  0  0  0  0  0  0  0  0
    7.8600   -1.7424    0.0000 H   0  0  0  0  0  0  0  0  0  0  0  0
    4.3958   -1.7424    0.0000 H   0  0  0  0  0  0  0  0  0  0  0  0
  1 21  1  0  0  0  0
  1 23  1  0  0  0  0
  2 22  1  0  0  0  0
  2 24  1  0  0  0  0
  3 14  2  0  0  0  0
  4 21  2  0  0  0  0
  5 22  2  0  0  0  0
  6 23  2  0  0  0  0
  7 24  2  0  0  0  0
  8 14  1  0  0  0  0
  8 15  2  0  0  0  0
  8 17  1  0  0  0  0
  9 14  1  0  0  0  0
  9 16  2  0  0  0  0
  9 18  1  0  0  0  0
 10 12  2  0  0  0  0
 10 15  1  0  0  0  0
 10 21  1  0  0  0  0
 11 13  2  0  0  0  0
 11 16  1  0  0  0  0
 11 22  1  0  0  0  0
 12 19  1  0  0  0  0
 12 23  1  0  0  0  0
 13 20  1  0  0  0  0
 13 24  1  0  0  0  0
 15 25  1  0  0  0  0
 16 26  1  0  0  0  0
 17 19  2  0  0  0  0
 17 27  1  0  0  0  0
 18 20  2  0  0  0  0
 18 28  1  0  0  0  0
 19 29  1  0  0  0  0
 20 30  1  0  0  0  0
M  END
> <PUBCHEM_COMPOUND_CID>
75498

> <PUBCHEM_COMPOUND_CANONICALIZED>
1

> <PUBCHEM_CACTVS_COMPLEXITY>
597

> <PUBCHEM_CACTVS_HBOND_ACCEPTOR>
7

> <PUBCHEM_CACTVS_HBOND_DONOR>
0

> <PUBCHEM_CACTVS_ROTATABLE_BOND>
2

> <PUBCHEM_CACTVS_SUBSKEYS>
AAADcYB4OAAAAAAAAAAAAAAAAAAAASJAAAAwYAAAAAAAAEgBQAAAGgAAAAAADASAmAAwCIAABACIAqDSCAACAAAkAAAIiAEACMgIJjKANRiCMQAkwAEIqYeLzvCuwAACAAAQAACAAAQAACAAAAAAAAAAAA==

> <PUBCHEM_IUPAC_OPENEYE_NAME>
5-(1,3-dioxoisobenzofuran-5-carbonyl)isobenzofuran-1,3-dione

> <PUBCHEM_IUPAC_CAS_NAME>
5-[(1,3-dioxo-5-isobenzofuranyl)-oxomethyl]isobenzofuran-1,3-dione

> <PUBCHEM_IUPAC_NAME_MARKUP>
5-(1,3-dioxo-2-benzofuran-5-carbonyl)-2-benzofuran-1,3-dione

> <PUBCHEM_IUPAC_NAME>
5-(1,3-dioxo-2-benzofuran-5-carbonyl)-2-benzofuran-1,3-dione

> <PUBCHEM_IUPAC_SYSTEMATIC_NAME>
5-[[1,3-bis(oxidanylidene)-2-benzofuran-5-yl]carbonyl]-2-benzofuran-1,3-dione

> <PUBCHEM_IUPAC_TRADITIONAL_NAME>
5-(1,3-diketophthalan-5-carbonyl)phthalan-1,3-quinone

> <PUBCHEM_IUPAC_INCHI>
InChI=1S/C17H6O7/c18-13(7-1-3-9-11(5-7)16(21)23-14(9)19)8-2-4-10-12(6-8)17(22)24-15(10)20/h1-6H

> <PUBCHEM_IUPAC_INCHIKEY>
VQVIHDPBMFABCQ-UHFFFAOYSA-N

> <PUBCHEM_XLOGP3_AA>
2

> <PUBCHEM_EXACT_MASS>
322.01135253

> <PUBCHEM_MOLECULAR_FORMULA>
C17H6O7

> <PUBCHEM_MOLECULAR_WEIGHT>
322.22

> <PUBCHEM_SMILES>
C1=CC2=C(C=C1C(=O)C3=CC4=C(C=C3)C(=O)OC4=O)C(=O)OC2=O

> <PUBCHEM_OPENEYE_CAN_SMILES>
C1=CC2=C(C=C1C(=O)C3=CC4=C(C=C3)C(=O)OC4=O)C(=O)OC2=O

> <PUBCHEM_OPENEYE_ISO_SMILES>
C1=CC2=C(C=C1C(=O)C3=CC4=C(C=C3)C(=O)OC4=O)C(=O)OC2=O

> <PUBCHEM_CACTVS_TPSA>
104

> <PUBCHEM_MONOISOTOPIC_WEIGHT>
322.01135253

> <PUBCHEM_TOTAL_CHARGE>
0

> <PUBCHEM_HEAVY_ATOM_COUNT>
24

> <PUBCHEM_ATOM_DEF_STEREO_COUNT>
0

> <PUBCHEM_ATOM_UDEF_STEREO_COUNT>
0

> <PUBCHEM_BOND_DEF_STEREO_COUNT>
0

> <PUBCHEM_BOND_UDEF_STEREO_COUNT>
0

> <PUBCHEM_ISOTOPIC_ATOM_COUNT>
0

> <PUBCHEM_COMPONENT_COUNT>
1

> <PUBCHEM_CACTVS_TAUTO_COUNT>
-1

> <PUBCHEM_COORDINATE_TYPE>
1
5
255

> <PUBCHEM_BONDANNOTATIONS>
10  12  8
10  15  8
11  13  8
11  16  8
12  19  8
13  20  8
17  19  8
18  20  8
8  15  8
8  17  8
9  16  8
9  18  8

$$$$
