76495
  -OEChem-04042512232D

115114  0     0  0  0  0  0  0999 V2000
   13.2583    4.7500    0.0000 P   0  0  0  0  0  0  0  0  0  0  0  0
   14.1244    5.2500    0.0000 O   0  0  0  0  0  0  0  0  0  0  0  0
   12.3923    5.2500    0.0000 O   0  0  0  0  0  0  0  0  0  0  0  0
   13.2583    3.7500    0.0000 O   0  0  0  0  0  0  0  0  0  0  0  0
   19.3205    5.2500    0.0000 C   0  0  0  0  0  0  0  0  0  0  0  0
    7.1962    5.2500    0.0000 C   0  0  0  0  0  0  0  0  0  0  0  0
   10.6603   -0.7500    0.0000 C   0  0  0  0  0  0  0  0  0  0  0  0
   20.1865    4.7500    0.0000 C   0  0  0  0  0  0  0  0  0  0  0  0
    6.3301    4.7500    0.0000 C   0  0  0  0  0  0  0  0  0  0  0  0
    9.7942   -1.2500    0.0000 C   0  0  0  0  0  0  0  0  0  0  0  0
   18.4545    4.7500    0.0000 C   0  0  0  0  0  0  0  0  0  0  0  0
    8.0622    4.7500    0.0000 C   0  0  0  0  0  0  0  0  0  0  0  0
   10.6603    0.2500    0.0000 C   0  0  0  0  0  0  0  0  0  0  0  0
   21.0526    5.2500    0.0000 C   0  0  0  0  0  0  0  0  0  0  0  0
    5.4641    5.2500    0.0000 C   0  0  0  0  0  0  0  0  0  0  0  0
    9.7942   -2.2500    0.0000 C   0  0  0  0  0  0  0  0  0  0  0  0
   17.5885    5.2500    0.0000 C   0  0  0  0  0  0  0  0  0  0  0  0
    8.9282    5.2500    0.0000 C   0  0  0  0  0  0  0  0  0  0  0  0
   11.5263    0.7500    0.0000 C   0  0  0  0  0  0  0  0  0  0  0  0
   21.9186    4.7500    0.0000 C   0  0  0  0  0  0  0  0  0  0  0  0
    4.5981    4.7500    0.0000 C   0  0  0  0  0  0  0  0  0  0  0  0
    8.9282   -2.7500    0.0000 C   0  0  0  0  0  0  0  0  0  0  0  0
   16.7224    4.7500    0.0000 C   0  0  0  0  0  0  0  0  0  0  0  0
    9.7942    4.7500    0.0000 C   0  0  0  0  0  0  0  0  0  0  0  0
   11.5263    1.7500    0.0000 C   0  0  0  0  0  0  0  0  0  0  0  0
   22.7846    5.2500    0.0000 C   0  0  0  0  0  0  0  0  0  0  0  0
    3.7320    5.2500    0.0000 C   0  0  0  0  0  0  0  0  0  0  0  0
    8.9282   -3.7500    0.0000 C   0  0  0  0  0  0  0  0  0  0  0  0
   15.8564    5.2500    0.0000 C   0  0  0  0  0  0  0  0  0  0  0  0
   10.6603    5.2500    0.0000 C   0  0  0  0  0  0  0  0  0  0  0  0
   12.3923    2.2500    0.0000 C   0  0  0  0  0  0  0  0  0  0  0  0
   23.6506    4.7500    0.0000 C   0  0  0  0  0  0  0  0  0  0  0  0
    2.8660    4.7500    0.0000 C   0  0  0  0  0  0  0  0  0  0  0  0
    8.0622   -4.2500    0.0000 C   0  0  0  0  0  0  0  0  0  0  0  0
   14.9904    4.7500    0.0000 C   0  0  0  0  0  0  0  0  0  0  0  0
   11.5263    4.7500    0.0000 C   0  0  0  0  0  0  0  0  0  0  0  0
   12.3923    3.2500    0.0000 C   0  0  0  0  0  0  0  0  0  0  0  0
   24.5167    5.2500    0.0000 C   0  0  0  0  0  0  0  0  0  0  0  0
    2.0000    5.2500    0.0000 C   0  0  0  0  0  0  0  0  0  0  0  0
    8.0622   -5.2500    0.0000 C   0  0  0  0  0  0  0  0  0  0  0  0
   19.7190    5.7250    0.0000 H   0  0  0  0  0  0  0  0  0  0  0  0
   18.9220    5.7250    0.0000 H   0  0  0  0  0  0  0  0  0  0  0  0
    7.5947    5.7250    0.0000 H   0  0  0  0  0  0  0  0  0  0  0  0
    6.7976    5.7250    0.0000 H   0  0  0  0  0  0  0  0  0  0  0  0
   10.8723   -1.3326    0.0000 H   0  0  0  0  0  0  0  0  0  0  0  0
   11.2708   -0.6423    0.0000 H   0  0  0  0  0  0  0  0  0  0  0  0
   19.7880    4.2750    0.0000 H   0  0  0  0  0  0  0  0  0  0  0  0
   20.5851    4.2750    0.0000 H   0  0  0  0  0  0  0  0  0  0  0  0
    5.9316    4.2750    0.0000 H   0  0  0  0  0  0  0  0  0  0  0  0
    6.7287    4.2750    0.0000 H   0  0  0  0  0  0  0  0  0  0  0  0
    9.5822   -0.6674    0.0000 H   0  0  0  0  0  0  0  0  0  0  0  0
    9.1836   -1.3577    0.0000 H   0  0  0  0  0  0  0  0  0  0  0  0
   18.0560    4.2750    0.0000 H   0  0  0  0  0  0  0  0  0  0  0  0
   18.8530    4.2750    0.0000 H   0  0  0  0  0  0  0  0  0  0  0  0
    7.6636    4.2750    0.0000 H   0  0  0  0  0  0  0  0  0  0  0  0
    8.4607    4.2750    0.0000 H   0  0  0  0  0  0  0  0  0  0  0  0
   10.4482    0.8326    0.0000 H   0  0  0  0  0  0  0  0  0  0  0  0
   10.0497    0.1423    0.0000 H   0  0  0  0  0  0  0  0  0  0  0  0
   21.4511    5.7250    0.0000 H   0  0  0  0  0  0  0  0  0  0  0  0
   20.6540    5.7250    0.0000 H   0  0  0  0  0  0  0  0  0  0  0  0
    5.8626    5.7250    0.0000 H   0  0  0  0  0  0  0  0  0  0  0  0
    5.0656    5.7250    0.0000 H   0  0  0  0  0  0  0  0  0  0  0  0
   10.0063   -2.8326    0.0000 H   0  0  0  0  0  0  0  0  0  0  0  0
   10.4048   -2.1423    0.0000 H   0  0  0  0  0  0  0  0  0  0  0  0
   17.9870    5.7250    0.0000 H   0  0  0  0  0  0  0  0  0  0  0  0
   17.1899    5.7250    0.0000 H   0  0  0  0  0  0  0  0  0  0  0  0
    9.3267    5.7250    0.0000 H   0  0  0  0  0  0  0  0  0  0  0  0
    8.5297    5.7250    0.0000 H   0  0  0  0  0  0  0  0  0  0  0  0
   11.7383    0.1674    0.0000 H   0  0  0  0  0  0  0  0  0  0  0  0
   12.1369    0.8577    0.0000 H   0  0  0  0  0  0  0  0  0  0  0  0
   21.5201    4.2750    0.0000 H   0  0  0  0  0  0  0  0  0  0  0  0
   22.3171    4.2750    0.0000 H   0  0  0  0  0  0  0  0  0  0  0  0
    4.1996    4.2750    0.0000 H   0  0  0  0  0  0  0  0  0  0  0  0
    4.9966    4.2750    0.0000 H   0  0  0  0  0  0  0  0  0  0  0  0
    8.7162   -2.1674    0.0000 H   0  0  0  0  0  0  0  0  0  0  0  0
    8.3176   -2.8577    0.0000 H   0  0  0  0  0  0  0  0  0  0  0  0
   16.3239    4.2750    0.0000 H   0  0  0  0  0  0  0  0  0  0  0  0
   17.1210    4.2750    0.0000 H   0  0  0  0  0  0  0  0  0  0  0  0
    9.3957    4.2750    0.0000 H   0  0  0  0  0  0  0  0  0  0  0  0
   10.1928    4.2750    0.0000 H   0  0  0  0  0  0  0  0  0  0  0  0
   11.3142    2.3326    0.0000 H   0  0  0  0  0  0  0  0  0  0  0  0
   10.9157    1.6423    0.0000 H   0  0  0  0  0  0  0  0  0  0  0  0
   23.1831    5.7250    0.0000 H   0  0  0  0  0  0  0  0  0  0  0  0
   22.3861    5.7250    0.0000 H   0  0  0  0  0  0  0  0  0  0  0  0
    4.1306    5.7250    0.0000 H   0  0  0  0  0  0  0  0  0  0  0  0
    3.3335    5.7250    0.0000 H   0  0  0  0  0  0  0  0  0  0  0  0
    9.1403   -4.3326    0.0000 H   0  0  0  0  0  0  0  0  0  0  0  0
    9.5388   -3.6423    0.0000 H   0  0  0  0  0  0  0  0  0  0  0  0
   16.2549    5.7250    0.0000 H   0  0  0  0  0  0  0  0  0  0  0  0
   15.4579    5.7250    0.0000 H   0  0  0  0  0  0  0  0  0  0  0  0
   11.0588    5.7250    0.0000 H   0  0  0  0  0  0  0  0  0  0  0  0
   10.2617    5.7250    0.0000 H   0  0  0  0  0  0  0  0  0  0  0  0
   12.6044    1.6674    0.0000 H   0  0  0  0  0  0  0  0  0  0  0  0
   13.0029    2.3577    0.0000 H   0  0  0  0  0  0  0  0  0  0  0  0
   23.2521    4.2750    0.0000 H   0  0  0  0  0  0  0  0  0  0  0  0
   24.0492    4.2750    0.0000 H   0  0  0  0  0  0  0  0  0  0  0  0
    2.4675    4.2750    0.0000 H   0  0  0  0  0  0  0  0  0  0  0  0
    3.2646    4.2750    0.0000 H   0  0  0  0  0  0  0  0  0  0  0  0
    7.8501   -3.6674    0.0000 H   0  0  0  0  0  0  0  0  0  0  0  0
    7.4516   -4.3577    0.0000 H   0  0  0  0  0  0  0  0  0  0  0  0
   14.5919    4.2750    0.0000 H   0  0  0  0  0  0  0  0  0  0  0  0
   15.3889    4.2750    0.0000 H   0  0  0  0  0  0  0  0  0  0  0  0
   11.1278    4.2750    0.0000 H   0  0  0  0  0  0  0  0  0  0  0  0
   11.9248    4.2750    0.0000 H   0  0  0  0  0  0  0  0  0  0  0  0
   12.1803    3.8326    0.0000 H   0  0  0  0  0  0  0  0  0  0  0  0
   11.7817    3.1423    0.0000 H   0  0  0  0  0  0  0  0  0  0  0  0
   24.8267    4.7131    0.0000 H   0  0  0  0  0  0  0  0  0  0  0  0
   25.0536    5.5600    0.0000 H   0  0  0  0  0  0  0  0  0  0  0  0
   24.2067    5.7869    0.0000 H   0  0  0  0  0  0  0  0  0  0  0  0
    2.3100    5.7869    0.0000 H   0  0  0  0  0  0  0  0  0  0  0  0
    1.4631    5.5600    0.0000 H   0  0  0  0  0  0  0  0  0  0  0  0
    1.6900    4.7131    0.0000 H   0  0  0  0  0  0  0  0  0  0  0  0
    7.4422   -5.2500    0.0000 H   0  0  0  0  0  0  0  0  0  0  0  0
    8.0622   -5.8700    0.0000 H   0  0  0  0  0  0  0  0  0  0  0  0
    8.6822   -5.2500    0.0000 H   0  0  0  0  0  0  0  0  0  0  0  0
  1  2  1  0  0  0  0
  1  3  1  0  0  0  0
  1  4  1  0  0  0  0
  2 35  1  0  0  0  0
  3 36  1  0  0  0  0
  4 37  1  0  0  0  0
  5  8  1  0  0  0  0
  5 11  1  0  0  0  0
  5 41  1  0  0  0  0
  5 42  1  0  0  0  0
  6  9  1  0  0  0  0
  6 12  1  0  0  0  0
  6 43  1  0  0  0  0
  6 44  1  0  0  0  0
  7 10  1  0  0  0  0
  7 13  1  0  0  0  0
  7 45  1  0  0  0  0
  7 46  1  0  0  0  0
  8 14  1  0  0  0  0
  8 47  1  0  0  0  0
  8 48  1  0  0  0  0
  9 15  1  0  0  0  0
  9 49  1  0  0  0  0
  9 50  1  0  0  0  0
 10 16  1  0  0  0  0
 10 51  1  0  0  0  0
 10 52  1  0  0  0  0
 11 17  1  0  0  0  0
 11 53  1  0  0  0  0
 11 54  1  0  0  0  0
 12 18  1  0  0  0  0
 12 55  1  0  0  0  0
 12 56  1  0  0  0  0
 13 19  1  0  0  0  0
 13 57  1  0  0  0  0
 13 58  1  0  0  0  0
 14 20  1  0  0  0  0
 14 59  1  0  0  0  0
 14 60  1  0  0  0  0
 15 21  1  0  0  0  0
 15 61  1  0  0  0  0
 15 62  1  0  0  0  0
 16 22  1  0  0  0  0
 16 63  1  0  0  0  0
 16 64  1  0  0  0  0
 17 23  1  0  0  0  0
 17 65  1  0  0  0  0
 17 66  1  0  0  0  0
 18 24  1  0  0  0  0
 18 67  1  0  0  0  0
 18 68  1  0  0  0  0
 19 25  1  0  0  0  0
 19 69  1  0  0  0  0
 19 70  1  0  0  0  0
 20 26  1  0  0  0  0
 20 71  1  0  0  0  0
 20 72  1  0  0  0  0
 21 27  1  0  0  0  0
 21 73  1  0  0  0  0
 21 74  1  0  0  0  0
 22 28  1  0  0  0  0
 22 75  1  0  0  0  0
 22 76  1  0  0  0  0
 23 29  1  0  0  0  0
 23 77  1  0  0  0  0
 23 78  1  0  0  0  0
 24 30  1  0  0  0  0
 24 79  1  0  0  0  0
 24 80  1  0  0  0  0
 25 31  1  0  0  0  0
 25 81  1  0  0  0  0
 25 82  1  0  0  0  0
 26 32  1  0  0  0  0
 26 83  1  0  0  0  0
 26 84  1  0  0  0  0
 27 33  1  0  0  0  0
 27 85  1  0  0  0  0
 27 86  1  0  0  0  0
 28 34  1  0  0  0  0
 28 87  1  0  0  0  0
 28 88  1  0  0  0  0
 29 35  1  0  0  0  0
 29 89  1  0  0  0  0
 29 90  1  0  0  0  0
 30 36  1  0  0  0  0
 30 91  1  0  0  0  0
 30 92  1  0  0  0  0
 31 37  1  0  0  0  0
 31 93  1  0  0  0  0
 31 94  1  0  0  0  0
 32 38  1  0  0  0  0
 32 95  1  0  0  0  0
 32 96  1  0  0  0  0
 33 39  1  0  0  0  0
 33 97  1  0  0  0  0
 33 98  1  0  0  0  0
 34 40  1  0  0  0  0
 34 99  1  0  0  0  0
 34100  1  0  0  0  0
 35101  1  0  0  0  0
 35102  1  0  0  0  0
 36103  1  0  0  0  0
 36104  1  0  0  0  0
 37105  1  0  0  0  0
 37106  1  0  0  0  0
 38107  1  0  0  0  0
 38108  1  0  0  0  0
 38109  1  0  0  0  0
 39110  1  0  0  0  0
 39111  1  0  0  0  0
 39112  1  0  0  0  0
 40113  1  0  0  0  0
 40114  1  0  0  0  0
 40115  1  0  0  0  0
M  END
> <PUBCHEM_COMPOUND_CID>
76495

> <PUBCHEM_COMPOUND_CANONICALIZED>
1

> <PUBCHEM_CACTVS_COMPLEXITY>
372

> <PUBCHEM_CACTVS_HBOND_ACCEPTOR>
3

> <PUBCHEM_CACTVS_HBOND_DONOR>
0

> <PUBCHEM_CACTVS_ROTATABLE_BOND>
36

> <PUBCHEM_CACTVS_SUBSKEYS>
AAADcfB8MAIAAAAAAAAAAAAAAAAAAAAAAAAAAAAAAAAAAAAAAAAAGgAAACAACACggAICAAAAARAAAAAAAAAAAAAAAAAAAAAAAAAAAAIAAAAAAAAEAAAAAAGAwKAAAAAAAAAAAAAAAAAAAAAAAAAAAAAAAA==

> <PUBCHEM_IUPAC_OPENEYE_NAME>
tridodecyl phosphite

> <PUBCHEM_IUPAC_CAS_NAME>
phosphorous acid tridodecyl ester

> <PUBCHEM_IUPAC_NAME_MARKUP>
tridodecyl phosphite

> <PUBCHEM_IUPAC_NAME>
tridodecyl phosphite

> <PUBCHEM_IUPAC_SYSTEMATIC_NAME>
tridodecyl phosphite

> <PUBCHEM_IUPAC_TRADITIONAL_NAME>
phosphorous acid trilauryl ester

> <PUBCHEM_IUPAC_INCHI>
InChI=1S/C36H75O3P/c1-4-7-10-13-16-19-22-25-28-31-34-37-40(38-35-32-29-26-23-20-17-14-11-8-5-2)39-36-33-30-27-24-21-18-15-12-9-6-3/h4-36H2,1-3H3

> <PUBCHEM_IUPAC_INCHIKEY>
IVIIAEVMQHEPAY-UHFFFAOYSA-N

> <PUBCHEM_XLOGP3_AA>
16.8

> <PUBCHEM_EXACT_MASS>
586.54538325

> <PUBCHEM_MOLECULAR_FORMULA>
C36H75O3P

> <PUBCHEM_MOLECULAR_WEIGHT>
587.0

> <PUBCHEM_SMILES>
CCCCCCCCCCCCOP(OCCCCCCCCCCCC)OCCCCCCCCCCCC

> <PUBCHEM_OPENEYE_CAN_SMILES>
CCCCCCCCCCCCOP(OCCCCCCCCCCCC)OCCCCCCCCCCCC

> <PUBCHEM_OPENEYE_ISO_SMILES>
CCCCCCCCCCCCOP(OCCCCCCCCCCCC)OCCCCCCCCCCCC

> <PUBCHEM_CACTVS_TPSA>
27.7

> <PUBCHEM_MONOISOTOPIC_WEIGHT>
586.54538325

> <PUBCHEM_TOTAL_CHARGE>
0

> <PUBCHEM_HEAVY_ATOM_COUNT>
40

> <PUBCHEM_ATOM_DEF_STEREO_COUNT>
0

> <PUBCHEM_ATOM_UDEF_STEREO_COUNT>
0

> <PUBCHEM_BOND_DEF_STEREO_COUNT>
0

> <PUBCHEM_BOND_UDEF_STEREO_COUNT>
0

> <PUBCHEM_ISOTOPIC_ATOM_COUNT>
0

> <PUBCHEM_COMPONENT_COUNT>
1

> <PUBCHEM_CACTVS_TAUTO_COUNT>
-1

> <PUBCHEM_COORDINATE_TYPE>
1
5
255

$$$$
