76586
  -OEChem-04042505432D

153153  0     0  0  0  0  0  0999 V2000
    6.3301    3.3529    0.0000 P   0  0  0  0  0  0  0  0  0  0  0  0
    6.3301    2.3529    0.0000 O   0  0  0  0  0  0  0  0  0  0  0  0
    7.3301    3.3529    0.0000 O   0  0  0  0  0  0  0  0  0  0  0  0
    2.8660    6.3529    0.0000 O   0  0  0  0  0  0  0  0  0  0  0  0
    5.3301    3.3529    0.0000 O   0  0  0  0  0  0  0  0  0  0  0  0
    2.8660    4.3529    0.0000 C   0  0  0  0  0  0  0  0  0  0  0  0
    4.5981    7.3529    0.0000 C   0  0  0  0  0  0  0  0  0  0  0  0
    3.7320    4.8529    0.0000 C   0  0  0  0  0  0  0  0  0  0  0  0
    4.5981    6.3529    0.0000 C   0  0  0  0  0  0  0  0  0  0  0  0
    3.7320    5.8529    0.0000 C   0  0  0  0  0  0  0  0  0  0  0  0
    5.4641    4.8529    0.0000 C   0  0  0  0  0  0  0  0  0  0  0  0
    4.5981    4.3529    0.0000 C   0  0  0  0  0  0  0  0  0  0  0  0
    5.4641    5.8529    0.0000 C   0  0  0  0  0  0  0  0  0  0  0  0
    6.3301    4.3529    0.0000 C   0  0  0  0  0  0  0  0  0  0  0  0
    2.0000    3.8529    0.0000 C   0  0  0  0  0  0  0  0  0  0  0  0
    3.3660    3.4869    0.0000 C   0  0  0  0  0  0  0  0  0  0  0  0
    2.3660    5.2189    0.0000 C   0  0  0  0  0  0  0  0  0  0  0  0
    4.5981    8.3529    0.0000 C   0  0  0  0  0  0  0  0  0  0  0  0
    5.5981    7.3529    0.0000 C   0  0  0  0  0  0  0  0  0  0  0  0
    3.5981    7.3529    0.0000 C   0  0  0  0  0  0  0  0  0  0  0  0
    9.7942   -2.6471    0.0000 C   0  0  0  0  0  0  0  0  0  0  0  0
   12.3301    6.8170    0.0000 C   0  0  0  0  0  0  0  0  0  0  0  0
    9.7942   -3.6471    0.0000 C   0  0  0  0  0  0  0  0  0  0  0  0
   13.3301    6.8170    0.0000 C   0  0  0  0  0  0  0  0  0  0  0  0
    8.9282   -2.1471    0.0000 C   0  0  0  0  0  0  0  0  0  0  0  0
   11.8301    5.9510    0.0000 C   0  0  0  0  0  0  0  0  0  0  0  0
   10.6603   -4.1471    0.0000 C   0  0  0  0  0  0  0  0  0  0  0  0
   13.8301    7.6830    0.0000 C   0  0  0  0  0  0  0  0  0  0  0  0
    8.9282   -1.1471    0.0000 C   0  0  0  0  0  0  0  0  0  0  0  0
   10.8301    5.9510    0.0000 C   0  0  0  0  0  0  0  0  0  0  0  0
   10.6603   -5.1471    0.0000 C   0  0  0  0  0  0  0  0  0  0  0  0
   14.8301    7.6830    0.0000 C   0  0  0  0  0  0  0  0  0  0  0  0
    8.0622   -0.6471    0.0000 C   0  0  0  0  0  0  0  0  0  0  0  0
   10.3301    5.0849    0.0000 C   0  0  0  0  0  0  0  0  0  0  0  0
   11.5263   -5.6471    0.0000 C   0  0  0  0  0  0  0  0  0  0  0  0
   15.3301    8.5490    0.0000 C   0  0  0  0  0  0  0  0  0  0  0  0
    8.0622    0.3529    0.0000 C   0  0  0  0  0  0  0  0  0  0  0  0
    9.3301    5.0849    0.0000 C   0  0  0  0  0  0  0  0  0  0  0  0
    7.1962    0.8529    0.0000 C   0  0  0  0  0  0  0  0  0  0  0  0
    8.8301    4.2189    0.0000 C   0  0  0  0  0  0  0  0  0  0  0  0
   11.5263   -6.6471    0.0000 C   0  0  0  0  0  0  0  0  0  0  0  0
   16.3301    8.5490    0.0000 C   0  0  0  0  0  0  0  0  0  0  0  0
    7.1962    1.8529    0.0000 C   0  0  0  0  0  0  0  0  0  0  0  0
    7.8301    4.2189    0.0000 C   0  0  0  0  0  0  0  0  0  0  0  0
   12.3923   -7.1471    0.0000 C   0  0  0  0  0  0  0  0  0  0  0  0
   16.8301    9.4151    0.0000 C   0  0  0  0  0  0  0  0  0  0  0  0
   12.3923   -8.1471    0.0000 C   0  0  0  0  0  0  0  0  0  0  0  0
   17.8301    9.4151    0.0000 C   0  0  0  0  0  0  0  0  0  0  0  0
   13.2583   -8.6471    0.0000 C   0  0  0  0  0  0  0  0  0  0  0  0
   18.3301   10.2811    0.0000 C   0  0  0  0  0  0  0  0  0  0  0  0
   13.2583   -9.6471    0.0000 C   0  0  0  0  0  0  0  0  0  0  0  0
   19.3301   10.2811    0.0000 C   0  0  0  0  0  0  0  0  0  0  0  0
   14.1244  -10.1471    0.0000 C   0  0  0  0  0  0  0  0  0  0  0  0
   19.8301   11.1471    0.0000 C   0  0  0  0  0  0  0  0  0  0  0  0
   14.1244  -11.1471    0.0000 C   0  0  0  0  0  0  0  0  0  0  0  0
   20.8301   11.1471    0.0000 C   0  0  0  0  0  0  0  0  0  0  0  0
    4.5981    3.7329    0.0000 H   0  0  0  0  0  0  0  0  0  0  0  0
    6.0010    6.1629    0.0000 H   0  0  0  0  0  0  0  0  0  0  0  0
    6.9407    4.2452    0.0000 H   0  0  0  0  0  0  0  0  0  0  0  0
    6.5422    4.9355    0.0000 H   0  0  0  0  0  0  0  0  0  0  0  0
    1.6900    4.3898    0.0000 H   0  0  0  0  0  0  0  0  0  0  0  0
    1.4631    3.5429    0.0000 H   0  0  0  0  0  0  0  0  0  0  0  0
    2.3100    3.3160    0.0000 H   0  0  0  0  0  0  0  0  0  0  0  0
    2.8291    3.1769    0.0000 H   0  0  0  0  0  0  0  0  0  0  0  0
    3.6760    2.9499    0.0000 H   0  0  0  0  0  0  0  0  0  0  0  0
    3.9030    3.7969    0.0000 H   0  0  0  0  0  0  0  0  0  0  0  0
    2.9030    5.5289    0.0000 H   0  0  0  0  0  0  0  0  0  0  0  0
    2.0560    5.7558    0.0000 H   0  0  0  0  0  0  0  0  0  0  0  0
    1.8291    4.9089    0.0000 H   0  0  0  0  0  0  0  0  0  0  0  0
    5.2181    8.3529    0.0000 H   0  0  0  0  0  0  0  0  0  0  0  0
    4.5981    8.9729    0.0000 H   0  0  0  0  0  0  0  0  0  0  0  0
    3.9781    8.3529    0.0000 H   0  0  0  0  0  0  0  0  0  0  0  0
    5.5981    6.7329    0.0000 H   0  0  0  0  0  0  0  0  0  0  0  0
    6.2181    7.3529    0.0000 H   0  0  0  0  0  0  0  0  0  0  0  0
    5.5981    7.9729    0.0000 H   0  0  0  0  0  0  0  0  0  0  0  0
    3.5981    7.9729    0.0000 H   0  0  0  0  0  0  0  0  0  0  0  0
    2.9781    7.3529    0.0000 H   0  0  0  0  0  0  0  0  0  0  0  0
    3.5981    6.7329    0.0000 H   0  0  0  0  0  0  0  0  0  0  0  0
   10.4048   -2.7548    0.0000 H   0  0  0  0  0  0  0  0  0  0  0  0
   10.0063   -2.0645    0.0000 H   0  0  0  0  0  0  0  0  0  0  0  0
   12.4378    7.4276    0.0000 H   0  0  0  0  0  0  0  0  0  0  0  0
   11.7475    7.0290    0.0000 H   0  0  0  0  0  0  0  0  0  0  0  0
    9.1836   -3.5394    0.0000 H   0  0  0  0  0  0  0  0  0  0  0  0
    9.5822   -4.2297    0.0000 H   0  0  0  0  0  0  0  0  0  0  0  0
   13.2225    6.2064    0.0000 H   0  0  0  0  0  0  0  0  0  0  0  0
   13.9127    6.6049    0.0000 H   0  0  0  0  0  0  0  0  0  0  0  0
    8.3176   -2.0394    0.0000 H   0  0  0  0  0  0  0  0  0  0  0  0
    8.7162   -2.7297    0.0000 H   0  0  0  0  0  0  0  0  0  0  0  0
   11.7225    5.3404    0.0000 H   0  0  0  0  0  0  0  0  0  0  0  0
   12.4127    5.7389    0.0000 H   0  0  0  0  0  0  0  0  0  0  0  0
   11.2708   -4.2548    0.0000 H   0  0  0  0  0  0  0  0  0  0  0  0
   10.8723   -3.5645    0.0000 H   0  0  0  0  0  0  0  0  0  0  0  0
   13.9378    8.2936    0.0000 H   0  0  0  0  0  0  0  0  0  0  0  0
   13.2475    7.8951    0.0000 H   0  0  0  0  0  0  0  0  0  0  0  0
    9.5388   -1.2548    0.0000 H   0  0  0  0  0  0  0  0  0  0  0  0
    9.1403   -0.5645    0.0000 H   0  0  0  0  0  0  0  0  0  0  0  0
   10.9378    6.5615    0.0000 H   0  0  0  0  0  0  0  0  0  0  0  0
   10.2475    6.1630    0.0000 H   0  0  0  0  0  0  0  0  0  0  0  0
   10.0497   -5.0395    0.0000 H   0  0  0  0  0  0  0  0  0  0  0  0
   10.4482   -5.7297    0.0000 H   0  0  0  0  0  0  0  0  0  0  0  0
   14.7225    7.0724    0.0000 H   0  0  0  0  0  0  0  0  0  0  0  0
   15.4127    7.4710    0.0000 H   0  0  0  0  0  0  0  0  0  0  0  0
    7.4516   -0.5395    0.0000 H   0  0  0  0  0  0  0  0  0  0  0  0
    7.8501   -1.2297    0.0000 H   0  0  0  0  0  0  0  0  0  0  0  0
   10.2225    4.4744    0.0000 H   0  0  0  0  0  0  0  0  0  0  0  0
   10.9127    4.8729    0.0000 H   0  0  0  0  0  0  0  0  0  0  0  0
   12.1369   -5.7548    0.0000 H   0  0  0  0  0  0  0  0  0  0  0  0
   11.7383   -5.0645    0.0000 H   0  0  0  0  0  0  0  0  0  0  0  0
   15.4378    9.1596    0.0000 H   0  0  0  0  0  0  0  0  0  0  0  0
   14.7475    8.7611    0.0000 H   0  0  0  0  0  0  0  0  0  0  0  0
    8.6728    0.2452    0.0000 H   0  0  0  0  0  0  0  0  0  0  0  0
    8.2742    0.9355    0.0000 H   0  0  0  0  0  0  0  0  0  0  0  0
    9.4378    5.6955    0.0000 H   0  0  0  0  0  0  0  0  0  0  0  0
    8.7475    5.2970    0.0000 H   0  0  0  0  0  0  0  0  0  0  0  0
   10.9157   -6.5395    0.0000 H   0  0  0  0  0  0  0  0  0  0  0  0
   11.3142   -7.2297    0.0000 H   0  0  0  0  0  0  0  0  0  0  0  0
   16.2225    7.9385    0.0000 H   0  0  0  0  0  0  0  0  0  0  0  0
   16.9127    8.3370    0.0000 H   0  0  0  0  0  0  0  0  0  0  0  0
    6.5856    0.9605    0.0000 H   0  0  0  0  0  0  0  0  0  0  0  0
    6.9841    0.2703    0.0000 H   0  0  0  0  0  0  0  0  0  0  0  0
    8.7225    3.6083    0.0000 H   0  0  0  0  0  0  0  0  0  0  0  0
    9.4127    4.0069    0.0000 H   0  0  0  0  0  0  0  0  0  0  0  0
    7.8067    1.7452    0.0000 H   0  0  0  0  0  0  0  0  0  0  0  0
    7.4082    2.4355    0.0000 H   0  0  0  0  0  0  0  0  0  0  0  0
    7.9378    4.8295    0.0000 H   0  0  0  0  0  0  0  0  0  0  0  0
    7.2475    4.4310    0.0000 H   0  0  0  0  0  0  0  0  0  0  0  0
   13.0029   -7.2548    0.0000 H   0  0  0  0  0  0  0  0  0  0  0  0
   12.6044   -6.5645    0.0000 H   0  0  0  0  0  0  0  0  0  0  0  0
   16.9378   10.0256    0.0000 H   0  0  0  0  0  0  0  0  0  0  0  0
   16.2475    9.6271    0.0000 H   0  0  0  0  0  0  0  0  0  0  0  0
    2.8660    6.9729    0.0000 H   0  0  0  0  0  0  0  0  0  0  0  0
   11.7817   -8.0394    0.0000 H   0  0  0  0  0  0  0  0  0  0  0  0
   12.1803   -8.7297    0.0000 H   0  0  0  0  0  0  0  0  0  0  0  0
   17.7225    8.8045    0.0000 H   0  0  0  0  0  0  0  0  0  0  0  0
   18.4127    9.2030    0.0000 H   0  0  0  0  0  0  0  0  0  0  0  0
   13.8689   -8.7548    0.0000 H   0  0  0  0  0  0  0  0  0  0  0  0
   13.4704   -8.0645    0.0000 H   0  0  0  0  0  0  0  0  0  0  0  0
   18.4378   10.8917    0.0000 H   0  0  0  0  0  0  0  0  0  0  0  0
   17.7475   10.4931    0.0000 H   0  0  0  0  0  0  0  0  0  0  0  0
   12.6477   -9.5394    0.0000 H   0  0  0  0  0  0  0  0  0  0  0  0
   13.0463  -10.2297    0.0000 H   0  0  0  0  0  0  0  0  0  0  0  0
   19.2225    9.6705    0.0000 H   0  0  0  0  0  0  0  0  0  0  0  0
   19.9127   10.0690    0.0000 H   0  0  0  0  0  0  0  0  0  0  0  0
   14.7349  -10.2548    0.0000 H   0  0  0  0  0  0  0  0  0  0  0  0
   14.3364   -9.5645    0.0000 H   0  0  0  0  0  0  0  0  0  0  0  0
   19.9378   11.7577    0.0000 H   0  0  0  0  0  0  0  0  0  0  0  0
   19.2475   11.3592    0.0000 H   0  0  0  0  0  0  0  0  0  0  0  0
   13.5044  -11.1471    0.0000 H   0  0  0  0  0  0  0  0  0  0  0  0
   14.1244  -11.7671    0.0000 H   0  0  0  0  0  0  0  0  0  0  0  0
   14.7444  -11.1471    0.0000 H   0  0  0  0  0  0  0  0  0  0  0  0
   20.8301   10.5271    0.0000 H   0  0  0  0  0  0  0  0  0  0  0  0
   21.4501   11.1471    0.0000 H   0  0  0  0  0  0  0  0  0  0  0  0
   20.8301   11.7671    0.0000 H   0  0  0  0  0  0  0  0  0  0  0  0
  1  2  1  0  0  0  0
  1  3  1  0  0  0  0
  1  5  2  0  0  0  0
  1 14  1  0  0  0  0
  2 43  1  0  0  0  0
  3 44  1  0  0  0  0
  4 10  1  0  0  0  0
  4131  1  0  0  0  0
  6  8  1  0  0  0  0
  6 15  1  0  0  0  0
  6 16  1  0  0  0  0
  6 17  1  0  0  0  0
  7  9  1  0  0  0  0
  7 18  1  0  0  0  0
  7 19  1  0  0  0  0
  7 20  1  0  0  0  0
  8 10  2  0  0  0  0
  8 12  1  0  0  0  0
  9 10  1  0  0  0  0
  9 13  2  0  0  0  0
 11 12  2  0  0  0  0
 11 13  1  0  0  0  0
 11 14  1  0  0  0  0
 12 57  1  0  0  0  0
 13 58  1  0  0  0  0
 14 59  1  0  0  0  0
 14 60  1  0  0  0  0
 15 61  1  0  0  0  0
 15 62  1  0  0  0  0
 15 63  1  0  0  0  0
 16 64  1  0  0  0  0
 16 65  1  0  0  0  0
 16 66  1  0  0  0  0
 17 67  1  0  0  0  0
 17 68  1  0  0  0  0
 17 69  1  0  0  0  0
 18 70  1  0  0  0  0
 18 71  1  0  0  0  0
 18 72  1  0  0  0  0
 19 73  1  0  0  0  0
 19 74  1  0  0  0  0
 19 75  1  0  0  0  0
 20 76  1  0  0  0  0
 20 77  1  0  0  0  0
 20 78  1  0  0  0  0
 21 23  1  0  0  0  0
 21 25  1  0  0  0  0
 21 79  1  0  0  0  0
 21 80  1  0  0  0  0
 22 24  1  0  0  0  0
 22 26  1  0  0  0  0
 22 81  1  0  0  0  0
 22 82  1  0  0  0  0
 23 27  1  0  0  0  0
 23 83  1  0  0  0  0
 23 84  1  0  0  0  0
 24 28  1  0  0  0  0
 24 85  1  0  0  0  0
 24 86  1  0  0  0  0
 25 29  1  0  0  0  0
 25 87  1  0  0  0  0
 25 88  1  0  0  0  0
 26 30  1  0  0  0  0
 26 89  1  0  0  0  0
 26 90  1  0  0  0  0
 27 31  1  0  0  0  0
 27 91  1  0  0  0  0
 27 92  1  0  0  0  0
 28 32  1  0  0  0  0
 28 93  1  0  0  0  0
 28 94  1  0  0  0  0
 29 33  1  0  0  0  0
 29 95  1  0  0  0  0
 29 96  1  0  0  0  0
 30 34  1  0  0  0  0
 30 97  1  0  0  0  0
 30 98  1  0  0  0  0
 31 35  1  0  0  0  0
 31 99  1  0  0  0  0
 31100  1  0  0  0  0
 32 36  1  0  0  0  0
 32101  1  0  0  0  0
 32102  1  0  0  0  0
 33 37  1  0  0  0  0
 33103  1  0  0  0  0
 33104  1  0  0  0  0
 34 38  1  0  0  0  0
 34105  1  0  0  0  0
 34106  1  0  0  0  0
 35 41  1  0  0  0  0
 35107  1  0  0  0  0
 35108  1  0  0  0  0
 36 42  1  0  0  0  0
 36109  1  0  0  0  0
 36110  1  0  0  0  0
 37 39  1  0  0  0  0
 37111  1  0  0  0  0
 37112  1  0  0  0  0
 38 40  1  0  0  0  0
 38113  1  0  0  0  0
 38114  1  0  0  0  0
 39 43  1  0  0  0  0
 39119  1  0  0  0  0
 39120  1  0  0  0  0
 40 44  1  0  0  0  0
 40121  1  0  0  0  0
 40122  1  0  0  0  0
 41 45  1  0  0  0  0
 41115  1  0  0  0  0
 41116  1  0  0  0  0
 42 46  1  0  0  0  0
 42117  1  0  0  0  0
 42118  1  0  0  0  0
 43123  1  0  0  0  0
 43124  1  0  0  0  0
 44125  1  0  0  0  0
 44126  1  0  0  0  0
 45 47  1  0  0  0  0
 45127  1  0  0  0  0
 45128  1  0  0  0  0
 46 48  1  0  0  0  0
 46129  1  0  0  0  0
 46130  1  0  0  0  0
 47 49  1  0  0  0  0
 47132  1  0  0  0  0
 47133  1  0  0  0  0
 48 50  1  0  0  0  0
 48134  1  0  0  0  0
 48135  1  0  0  0  0
 49 51  1  0  0  0  0
 49136  1  0  0  0  0
 49137  1  0  0  0  0
 50 52  1  0  0  0  0
 50138  1  0  0  0  0
 50139  1  0  0  0  0
 51 53  1  0  0  0  0
 51140  1  0  0  0  0
 51141  1  0  0  0  0
 52 54  1  0  0  0  0
 52142  1  0  0  0  0
 52143  1  0  0  0  0
 53 55  1  0  0  0  0
 53144  1  0  0  0  0
 53145  1  0  0  0  0
 54 56  1  0  0  0  0
 54146  1  0  0  0  0
 54147  1  0  0  0  0
 55148  1  0  0  0  0
 55149  1  0  0  0  0
 55150  1  0  0  0  0
 56151  1  0  0  0  0
 56152  1  0  0  0  0
 56153  1  0  0  0  0
M  END
> <PUBCHEM_COMPOUND_CID>
76586

> <PUBCHEM_COMPOUND_CANONICALIZED>
1

> <PUBCHEM_CACTVS_COMPLEXITY>
841

> <PUBCHEM_CACTVS_HBOND_ACCEPTOR>
4

> <PUBCHEM_CACTVS_HBOND_DONOR>
1

> <PUBCHEM_CACTVS_ROTATABLE_BOND>
40

> <PUBCHEM_CACTVS_SUBSKEYS>
AAADcfB8OAIAAAAAAAAAAAAAAAAAAAAAAAAwAAAAAAAAAAABAAAAGggACCAADgSomAIyBoAAAxCAQiBCAIACAAAgIAAAiAAECIgIJiKCERKAcAAkwBEImAeAwOAPoAACAAAIAABAAAQAABAAAAAAAAAAAA==

> <PUBCHEM_IUPAC_OPENEYE_NAME>
2,6-ditert-butyl-4-(dioctadecoxyphosphorylmethyl)phenol

> <PUBCHEM_IUPAC_CAS_NAME>
2,6-ditert-butyl-4-(dioctadecoxyphosphorylmethyl)phenol

> <PUBCHEM_IUPAC_NAME_MARKUP>
2,6-di<I>tert</I>-butyl-4-(dioctadecoxyphosphorylmethyl)phenol

> <PUBCHEM_IUPAC_NAME>
2,6-ditert-butyl-4-(dioctadecoxyphosphorylmethyl)phenol

> <PUBCHEM_IUPAC_SYSTEMATIC_NAME>
2,6-ditert-butyl-4-(dioctadecoxyphosphorylmethyl)phenol

> <PUBCHEM_IUPAC_TRADITIONAL_NAME>
2,6-ditert-butyl-4-(distearyloxyphosphorylmethyl)phenol

> <PUBCHEM_IUPAC_INCHI>
InChI=1S/C51H97O4P/c1-9-11-13-15-17-19-21-23-25-27-29-31-33-35-37-39-41-54-56(53,45-46-43-47(50(3,4)5)49(52)48(44-46)51(6,7)8)55-42-40-38-36-34-32-30-28-26-24-22-20-18-16-14-12-10-2/h43-44,52H,9-42,45H2,1-8H3

> <PUBCHEM_IUPAC_INCHIKEY>
SAJFQHPVIYPPEY-UHFFFAOYSA-N

> <PUBCHEM_XLOGP3_AA>
21.6

> <PUBCHEM_EXACT_MASS>
804.71244857

> <PUBCHEM_MOLECULAR_FORMULA>
C51H97O4P

> <PUBCHEM_MOLECULAR_WEIGHT>
805.3

> <PUBCHEM_SMILES>
CCCCCCCCCCCCCCCCCCOP(=O)(CC1=CC(=C(C(=C1)C(C)(C)C)O)C(C)(C)C)OCCCCCCCCCCCCCCCCCC

> <PUBCHEM_OPENEYE_CAN_SMILES>
CCCCCCCCCCCCCCCCCCOP(=O)(CC1=CC(=C(C(=C1)C(C)(C)C)O)C(C)(C)C)OCCCCCCCCCCCCCCCCCC

> <PUBCHEM_OPENEYE_ISO_SMILES>
CCCCCCCCCCCCCCCCCCOP(=O)(CC1=CC(=C(C(=C1)C(C)(C)C)O)C(C)(C)C)OCCCCCCCCCCCCCCCCCC

> <PUBCHEM_CACTVS_TPSA>
55.8

> <PUBCHEM_MONOISOTOPIC_WEIGHT>
804.71244857

> <PUBCHEM_TOTAL_CHARGE>
0

> <PUBCHEM_HEAVY_ATOM_COUNT>
56

> <PUBCHEM_ATOM_DEF_STEREO_COUNT>
0

> <PUBCHEM_ATOM_UDEF_STEREO_COUNT>
0

> <PUBCHEM_BOND_DEF_STEREO_COUNT>
0

> <PUBCHEM_BOND_UDEF_STEREO_COUNT>
0

> <PUBCHEM_ISOTOPIC_ATOM_COUNT>
0

> <PUBCHEM_COMPONENT_COUNT>
1

> <PUBCHEM_CACTVS_TAUTO_COUNT>
-1

> <PUBCHEM_COORDINATE_TYPE>
1
5
255

> <PUBCHEM_BONDANNOTATIONS>
11  12  8
11  13  8
8  10  8
8  12  8
9  10  8
9  13  8

$$$$
