77470
  -OEChem-04042505422D

 49 51  0     0  0  0  0  0  0999 V2000
    2.0000    1.0000    0.0000 Cl  0  0  0  0  0  0  0  0  0  0  0  0
    7.1279   -1.7320    0.0000 O   0  0  0  0  0  0  0  0  0  0  0  0
    6.1279    0.0000    0.0000 N   0  0  0  0  0  0  0  0  0  0  0  0
    5.5443    0.8047    0.0000 N   0  0  0  0  0  0  0  0  0  0  0  0
    5.5443   -0.8047    0.0000 N   0  0  0  0  0  0  0  0  0  0  0  0
    9.1279   -1.7320    0.0000 C   0  0  0  0  0  0  0  0  0  0  0  0
    9.1279    1.7320    0.0000 C   0  0  0  0  0  0  0  0  0  0  0  0
    8.6279   -0.8660    0.0000 C   0  0  0  0  0  0  0  0  0  0  0  0
    8.6279    0.8660    0.0000 C   0  0  0  0  0  0  0  0  0  0  0  0
    9.1279    0.0000    0.0000 C   0  0  0  0  0  0  0  0  0  0  0  0
    7.6279   -0.8660    0.0000 C   0  0  0  0  0  0  0  0  0  0  0  0
    7.6279    0.8660    0.0000 C   0  0  0  0  0  0  0  0  0  0  0  0
    9.6279   -2.5981    0.0000 C   0  0  0  0  0  0  0  0  0  0  0  0
    9.9939   -1.2320    0.0000 C   0  0  0  0  0  0  0  0  0  0  0  0
    8.2619   -2.2320    0.0000 C   0  0  0  0  0  0  0  0  0  0  0  0
    7.1279    0.0000    0.0000 C   0  0  0  0  0  0  0  0  0  0  0  0
    9.6279    2.5981    0.0000 C   0  0  0  0  0  0  0  0  0  0  0  0
    9.9939    1.2320    0.0000 C   0  0  0  0  0  0  0  0  0  0  0  0
    8.2619    2.2320    0.0000 C   0  0  0  0  0  0  0  0  0  0  0  0
    4.5981    0.5000    0.0000 C   0  0  0  0  0  0  0  0  0  0  0  0
    4.5981   -0.5000    0.0000 C   0  0  0  0  0  0  0  0  0  0  0  0
    3.7320    1.0000    0.0000 C   0  0  0  0  0  0  0  0  0  0  0  0
    3.7320   -1.0000    0.0000 C   0  0  0  0  0  0  0  0  0  0  0  0
    2.8660    0.5000    0.0000 C   0  0  0  0  0  0  0  0  0  0  0  0
    2.8660   -0.5000    0.0000 C   0  0  0  0  0  0  0  0  0  0  0  0
    9.7479    0.0000    0.0000 H   0  0  0  0  0  0  0  0  0  0  0  0
    7.3179    1.4030    0.0000 H   0  0  0  0  0  0  0  0  0  0  0  0
    9.0910   -2.9081    0.0000 H   0  0  0  0  0  0  0  0  0  0  0  0
    9.9379   -3.1350    0.0000 H   0  0  0  0  0  0  0  0  0  0  0  0
   10.1648   -2.2881    0.0000 H   0  0  0  0  0  0  0  0  0  0  0  0
   10.3039   -1.7690    0.0000 H   0  0  0  0  0  0  0  0  0  0  0  0
   10.5309   -0.9221    0.0000 H   0  0  0  0  0  0  0  0  0  0  0  0
    9.6839   -0.6951    0.0000 H   0  0  0  0  0  0  0  0  0  0  0  0
    7.9519   -1.6951    0.0000 H   0  0  0  0  0  0  0  0  0  0  0  0
    7.7249   -2.5420    0.0000 H   0  0  0  0  0  0  0  0  0  0  0  0
    8.5719   -2.7690    0.0000 H   0  0  0  0  0  0  0  0  0  0  0  0
   10.1648    2.2881    0.0000 H   0  0  0  0  0  0  0  0  0  0  0  0
    9.9379    3.1350    0.0000 H   0  0  0  0  0  0  0  0  0  0  0  0
    9.0910    2.9081    0.0000 H   0  0  0  0  0  0  0  0  0  0  0  0
    9.6839    0.6951    0.0000 H   0  0  0  0  0  0  0  0  0  0  0  0
   10.5309    0.9221    0.0000 H   0  0  0  0  0  0  0  0  0  0  0  0
   10.3039    1.7690    0.0000 H   0  0  0  0  0  0  0  0  0  0  0  0
    8.5719    2.7690    0.0000 H   0  0  0  0  0  0  0  0  0  0  0  0
    7.7249    2.5420    0.0000 H   0  0  0  0  0  0  0  0  0  0  0  0
    7.9519    1.6951    0.0000 H   0  0  0  0  0  0  0  0  0  0  0  0
    6.5079   -1.7320    0.0000 H   0  0  0  0  0  0  0  0  0  0  0  0
    3.7320    1.6200    0.0000 H   0  0  0  0  0  0  0  0  0  0  0  0
    3.7320   -1.6200    0.0000 H   0  0  0  0  0  0  0  0  0  0  0  0
    2.3291   -0.8100    0.0000 H   0  0  0  0  0  0  0  0  0  0  0  0
  1 24  1  0  0  0  0
  2 11  1  0  0  0  0
  2 46  1  0  0  0  0
  3  4  1  0  0  0  0
  3  5  1  0  0  0  0
  3 16  1  0  0  0  0
  4 20  2  0  0  0  0
  5 21  2  0  0  0  0
  6  8  1  0  0  0  0
  6 13  1  0  0  0  0
  6 14  1  0  0  0  0
  6 15  1  0  0  0  0
  7  9  1  0  0  0  0
  7 17  1  0  0  0  0
  7 18  1  0  0  0  0
  7 19  1  0  0  0  0
  8 10  1  0  0  0  0
  8 11  2  0  0  0  0
  9 10  2  0  0  0  0
  9 12  1  0  0  0  0
 10 26  1  0  0  0  0
 11 16  1  0  0  0  0
 12 16  2  0  0  0  0
 12 27  1  0  0  0  0
 13 28  1  0  0  0  0
 13 29  1  0  0  0  0
 13 30  1  0  0  0  0
 14 31  1  0  0  0  0
 14 32  1  0  0  0  0
 14 33  1  0  0  0  0
 15 34  1  0  0  0  0
 15 35  1  0  0  0  0
 15 36  1  0  0  0  0
 17 37  1  0  0  0  0
 17 38  1  0  0  0  0
 17 39  1  0  0  0  0
 18 40  1  0  0  0  0
 18 41  1  0  0  0  0
 18 42  1  0  0  0  0
 19 43  1  0  0  0  0
 19 44  1  0  0  0  0
 19 45  1  0  0  0  0
 20 21  1  0  0  0  0
 20 22  1  0  0  0  0
 21 23  1  0  0  0  0
 22 24  2  0  0  0  0
 22 47  1  0  0  0  0
 23 25  2  0  0  0  0
 23 48  1  0  0  0  0
 24 25  1  0  0  0  0
 25 49  1  0  0  0  0
M  END
> <PUBCHEM_COMPOUND_CID>
77470

> <PUBCHEM_COMPOUND_CANONICALIZED>
1

> <PUBCHEM_CACTVS_COMPLEXITY>
473

> <PUBCHEM_CACTVS_HBOND_ACCEPTOR>
3

> <PUBCHEM_CACTVS_HBOND_DONOR>
1

> <PUBCHEM_CACTVS_ROTATABLE_BOND>
3

> <PUBCHEM_CACTVS_SUBSKEYS>
AAADceB7IAAEAAAAAAAAAAAAAAAAAWAAAAAwYAAAAAAAAFgB9AAAHgIICAAADg6BniAyxrAAAgCiAyRiQACSBAQgNwAYmCA1fpgKZqKTk5OAcABkyBEI2AeQwPAPoABCQAIIECBAAISABBAgQAAAAAAAAA==

> <PUBCHEM_IUPAC_OPENEYE_NAME>
2,4-ditert-butyl-6-(5-chlorobenzotriazol-2-yl)phenol

> <PUBCHEM_IUPAC_CAS_NAME>
2,4-ditert-butyl-6-(5-chloro-2-benzotriazolyl)phenol

> <PUBCHEM_IUPAC_NAME_MARKUP>
2,4-di<I>tert</I>-butyl-6-(5-chlorobenzotriazol-2-yl)phenol

> <PUBCHEM_IUPAC_NAME>
2,4-ditert-butyl-6-(5-chlorobenzotriazol-2-yl)phenol

> <PUBCHEM_IUPAC_SYSTEMATIC_NAME>
2,4-ditert-butyl-6-(5-chloranylbenzotriazol-2-yl)phenol

> <PUBCHEM_IUPAC_TRADITIONAL_NAME>
2,4-ditert-butyl-6-(5-chlorobenzotriazol-2-yl)phenol

> <PUBCHEM_IUPAC_INCHI>
InChI=1S/C20H24ClN3O/c1-19(2,3)12-9-14(20(4,5)6)18(25)17(10-12)24-22-15-8-7-13(21)11-16(15)23-24/h7-11,25H,1-6H3

> <PUBCHEM_IUPAC_INCHIKEY>
UWSMKYBKUPAEJQ-UHFFFAOYSA-N

> <PUBCHEM_XLOGP3_AA>
6.9

> <PUBCHEM_EXACT_MASS>
357.1607901

> <PUBCHEM_MOLECULAR_FORMULA>
C20H24ClN3O

> <PUBCHEM_MOLECULAR_WEIGHT>
357.9

> <PUBCHEM_SMILES>
CC(C)(C)C1=CC(=C(C(=C1)N2N=C3C=CC(=CC3=N2)Cl)O)C(C)(C)C

> <PUBCHEM_OPENEYE_CAN_SMILES>
CC(C)(C)C1=CC(=C(C(=C1)N2N=C3C=CC(=CC3=N2)Cl)O)C(C)(C)C

> <PUBCHEM_OPENEYE_ISO_SMILES>
CC(C)(C)C1=CC(=C(C(=C1)N2N=C3C=CC(=CC3=N2)Cl)O)C(C)(C)C

> <PUBCHEM_CACTVS_TPSA>
50.9

> <PUBCHEM_MONOISOTOPIC_WEIGHT>
357.1607901

> <PUBCHEM_TOTAL_CHARGE>
0

> <PUBCHEM_HEAVY_ATOM_COUNT>
25

> <PUBCHEM_ATOM_DEF_STEREO_COUNT>
0

> <PUBCHEM_ATOM_UDEF_STEREO_COUNT>
0

> <PUBCHEM_BOND_DEF_STEREO_COUNT>
0

> <PUBCHEM_BOND_UDEF_STEREO_COUNT>
0

> <PUBCHEM_ISOTOPIC_ATOM_COUNT>
0

> <PUBCHEM_COMPONENT_COUNT>
1

> <PUBCHEM_CACTVS_TAUTO_COUNT>
-1

> <PUBCHEM_COORDINATE_TYPE>
1
5
255

> <PUBCHEM_BONDANNOTATIONS>
11  16  8
12  16  8
20  21  8
20  22  8
21  23  8
22  24  8
23  25  8
24  25  8
3  4  8
3  5  8
4  20  8
5  21  8
8  10  8
8  11  8
9  10  8
9  12  8

$$$$
