77897
  -OEChem-04042505432D

 74 75  0     0  0  0  0  0  0999 V2000
    6.3301   -1.0670    0.0000 O   0  0  0  0  0  0  0  0  0  0  0  0
    2.8660    1.9330    0.0000 O   0  0  0  0  0  0  0  0  0  0  0  0
    7.1962    0.4330    0.0000 O   0  0  0  0  0  0  0  0  0  0  0  0
    2.8660   -0.0670    0.0000 C   0  0  0  0  0  0  0  0  0  0  0  0
    4.5981    2.9330    0.0000 C   0  0  0  0  0  0  0  0  0  0  0  0
    6.3301   -3.0670    0.0000 C   0  0  0  0  0  0  0  0  0  0  0  0
    3.7320    0.4330    0.0000 C   0  0  0  0  0  0  0  0  0  0  0  0
    4.5981    1.9330    0.0000 C   0  0  0  0  0  0  0  0  0  0  0  0
    9.7942   -3.0670    0.0000 C   0  0  0  0  0  0  0  0  0  0  0  0
    7.1962   -2.5670    0.0000 C   0  0  0  0  0  0  0  0  0  0  0  0
    8.9282   -2.5670    0.0000 C   0  0  0  0  0  0  0  0  0  0  0  0
    3.7320    1.4330    0.0000 C   0  0  0  0  0  0  0  0  0  0  0  0
    8.0622   -3.0670    0.0000 C   0  0  0  0  0  0  0  0  0  0  0  0
    4.5981   -0.0670    0.0000 C   0  0  0  0  0  0  0  0  0  0  0  0
    5.4641    1.4330    0.0000 C   0  0  0  0  0  0  0  0  0  0  0  0
    5.4641    0.4330    0.0000 C   0  0  0  0  0  0  0  0  0  0  0  0
    7.1962   -1.5670    0.0000 C   0  0  0  0  0  0  0  0  0  0  0  0
    2.0000   -0.5670    0.0000 C   0  0  0  0  0  0  0  0  0  0  0  0
    3.3660   -0.9330    0.0000 C   0  0  0  0  0  0  0  0  0  0  0  0
    2.3660    0.7990    0.0000 C   0  0  0  0  0  0  0  0  0  0  0  0
    4.5981    3.9330    0.0000 C   0  0  0  0  0  0  0  0  0  0  0  0
    5.5981    2.9330    0.0000 C   0  0  0  0  0  0  0  0  0  0  0  0
    3.5981    2.9330    0.0000 C   0  0  0  0  0  0  0  0  0  0  0  0
    6.8301   -3.9330    0.0000 C   0  0  0  0  0  0  0  0  0  0  0  0
    5.4641   -3.5670    0.0000 C   0  0  0  0  0  0  0  0  0  0  0  0
    5.8301   -2.2010    0.0000 C   0  0  0  0  0  0  0  0  0  0  0  0
   10.6603   -3.5670    0.0000 C   0  0  0  0  0  0  0  0  0  0  0  0
   10.2942   -2.2010    0.0000 C   0  0  0  0  0  0  0  0  0  0  0  0
    9.2942   -3.9330    0.0000 C   0  0  0  0  0  0  0  0  0  0  0  0
    8.9282   -1.5670    0.0000 C   0  0  0  0  0  0  0  0  0  0  0  0
    8.0622   -1.0670    0.0000 C   0  0  0  0  0  0  0  0  0  0  0  0
    6.3301   -0.0670    0.0000 C   0  0  0  0  0  0  0  0  0  0  0  0
    8.0622   -3.6870    0.0000 H   0  0  0  0  0  0  0  0  0  0  0  0
    4.5981   -0.6870    0.0000 H   0  0  0  0  0  0  0  0  0  0  0  0
    6.0010    1.7430    0.0000 H   0  0  0  0  0  0  0  0  0  0  0  0
    1.6900   -0.0301    0.0000 H   0  0  0  0  0  0  0  0  0  0  0  0
    1.4631   -0.8770    0.0000 H   0  0  0  0  0  0  0  0  0  0  0  0
    2.3100   -1.1039    0.0000 H   0  0  0  0  0  0  0  0  0  0  0  0
    2.8291   -1.2430    0.0000 H   0  0  0  0  0  0  0  0  0  0  0  0
    3.6760   -1.4700    0.0000 H   0  0  0  0  0  0  0  0  0  0  0  0
    3.9030   -0.6230    0.0000 H   0  0  0  0  0  0  0  0  0  0  0  0
    2.9030    1.1090    0.0000 H   0  0  0  0  0  0  0  0  0  0  0  0
    2.0560    1.3360    0.0000 H   0  0  0  0  0  0  0  0  0  0  0  0
    1.8291    0.4890    0.0000 H   0  0  0  0  0  0  0  0  0  0  0  0
    5.2181    3.9330    0.0000 H   0  0  0  0  0  0  0  0  0  0  0  0
    4.5981    4.5530    0.0000 H   0  0  0  0  0  0  0  0  0  0  0  0
    3.9781    3.9330    0.0000 H   0  0  0  0  0  0  0  0  0  0  0  0
    5.5981    2.3130    0.0000 H   0  0  0  0  0  0  0  0  0  0  0  0
    6.2181    2.9330    0.0000 H   0  0  0  0  0  0  0  0  0  0  0  0
    5.5981    3.5530    0.0000 H   0  0  0  0  0  0  0  0  0  0  0  0
    3.5981    3.5530    0.0000 H   0  0  0  0  0  0  0  0  0  0  0  0
    2.9781    2.9330    0.0000 H   0  0  0  0  0  0  0  0  0  0  0  0
    3.5981    2.3130    0.0000 H   0  0  0  0  0  0  0  0  0  0  0  0
    6.2932   -4.2430    0.0000 H   0  0  0  0  0  0  0  0  0  0  0  0
    7.1401   -4.4700    0.0000 H   0  0  0  0  0  0  0  0  0  0  0  0
    7.3671   -3.6230    0.0000 H   0  0  0  0  0  0  0  0  0  0  0  0
    5.1541   -3.0300    0.0000 H   0  0  0  0  0  0  0  0  0  0  0  0
    4.9272   -3.8770    0.0000 H   0  0  0  0  0  0  0  0  0  0  0  0
    5.7741   -4.1039    0.0000 H   0  0  0  0  0  0  0  0  0  0  0  0
    6.3671   -1.8910    0.0000 H   0  0  0  0  0  0  0  0  0  0  0  0
    5.5201   -1.6640    0.0000 H   0  0  0  0  0  0  0  0  0  0  0  0
    5.2932   -2.5110    0.0000 H   0  0  0  0  0  0  0  0  0  0  0  0
   10.3503   -4.1039    0.0000 H   0  0  0  0  0  0  0  0  0  0  0  0
   11.1972   -3.8770    0.0000 H   0  0  0  0  0  0  0  0  0  0  0  0
   10.9703   -3.0300    0.0000 H   0  0  0  0  0  0  0  0  0  0  0  0
   10.8312   -2.5110    0.0000 H   0  0  0  0  0  0  0  0  0  0  0  0
   10.6042   -1.6640    0.0000 H   0  0  0  0  0  0  0  0  0  0  0  0
    9.7573   -1.8910    0.0000 H   0  0  0  0  0  0  0  0  0  0  0  0
    8.7573   -3.6230    0.0000 H   0  0  0  0  0  0  0  0  0  0  0  0
    8.9842   -4.4700    0.0000 H   0  0  0  0  0  0  0  0  0  0  0  0
    9.8312   -4.2430    0.0000 H   0  0  0  0  0  0  0  0  0  0  0  0
    9.4651   -1.2570    0.0000 H   0  0  0  0  0  0  0  0  0  0  0  0
    8.0622   -0.4470    0.0000 H   0  0  0  0  0  0  0  0  0  0  0  0
    2.8660    2.5530    0.0000 H   0  0  0  0  0  0  0  0  0  0  0  0
  1 17  1  0  0  0  0
  1 32  1  0  0  0  0
  2 12  1  0  0  0  0
  2 74  1  0  0  0  0
  3 32  2  0  0  0  0
  4  7  1  0  0  0  0
  4 18  1  0  0  0  0
  4 19  1  0  0  0  0
  4 20  1  0  0  0  0
  5  8  1  0  0  0  0
  5 21  1  0  0  0  0
  5 22  1  0  0  0  0
  5 23  1  0  0  0  0
  6 10  1  0  0  0  0
  6 24  1  0  0  0  0
  6 25  1  0  0  0  0
  6 26  1  0  0  0  0
  7 12  2  0  0  0  0
  7 14  1  0  0  0  0
  8 12  1  0  0  0  0
  8 15  2  0  0  0  0
  9 11  1  0  0  0  0
  9 27  1  0  0  0  0
  9 28  1  0  0  0  0
  9 29  1  0  0  0  0
 10 13  1  0  0  0  0
 10 17  2  0  0  0  0
 11 13  2  0  0  0  0
 11 30  1  0  0  0  0
 13 33  1  0  0  0  0
 14 16  2  0  0  0  0
 14 34  1  0  0  0  0
 15 16  1  0  0  0  0
 15 35  1  0  0  0  0
 16 32  1  0  0  0  0
 17 31  1  0  0  0  0
 18 36  1  0  0  0  0
 18 37  1  0  0  0  0
 18 38  1  0  0  0  0
 19 39  1  0  0  0  0
 19 40  1  0  0  0  0
 19 41  1  0  0  0  0
 20 42  1  0  0  0  0
 20 43  1  0  0  0  0
 20 44  1  0  0  0  0
 21 45  1  0  0  0  0
 21 46  1  0  0  0  0
 21 47  1  0  0  0  0
 22 48  1  0  0  0  0
 22 49  1  0  0  0  0
 22 50  1  0  0  0  0
 23 51  1  0  0  0  0
 23 52  1  0  0  0  0
 23 53  1  0  0  0  0
 24 54  1  0  0  0  0
 24 55  1  0  0  0  0
 24 56  1  0  0  0  0
 25 57  1  0  0  0  0
 25 58  1  0  0  0  0
 25 59  1  0  0  0  0
 26 60  1  0  0  0  0
 26 61  1  0  0  0  0
 26 62  1  0  0  0  0
 27 63  1  0  0  0  0
 27 64  1  0  0  0  0
 27 65  1  0  0  0  0
 28 66  1  0  0  0  0
 28 67  1  0  0  0  0
 28 68  1  0  0  0  0
 29 69  1  0  0  0  0
 29 70  1  0  0  0  0
 29 71  1  0  0  0  0
 30 31  2  0  0  0  0
 30 72  1  0  0  0  0
 31 73  1  0  0  0  0
M  END
> <PUBCHEM_COMPOUND_CID>
77897

> <PUBCHEM_COMPOUND_CANONICALIZED>
1

> <PUBCHEM_CACTVS_COMPLEXITY>
613

> <PUBCHEM_CACTVS_HBOND_ACCEPTOR>
3

> <PUBCHEM_CACTVS_HBOND_DONOR>
1

> <PUBCHEM_CACTVS_ROTATABLE_BOND>
7

> <PUBCHEM_CACTVS_SUBSKEYS>
AAADcfB4MAAAAAAAAAAAAAAAAAAAAAAAAAAwYAAAAAAAAAABQAAAGgAACAAADgSAmAAyDoAABgCIAiDSCAACCAAkIAAIiAEGCMgMJjKGNRqCeyCkwBEIuYeI7PzPoAACAAAIAABAAAQAABAAAAAAAAAAAA==

> <PUBCHEM_IUPAC_OPENEYE_NAME>
(2,4-ditert-butylphenyl) 3,5-ditert-butyl-4-hydroxy-benzoate

> <PUBCHEM_IUPAC_CAS_NAME>
3,5-ditert-butyl-4-hydroxybenzoic acid (2,4-ditert-butylphenyl) ester

> <PUBCHEM_IUPAC_NAME_MARKUP>
(2,4-di<I>tert</I>-butylphenyl) 3,5-di<I>tert</I>-butyl-4-hydroxybenzoate

> <PUBCHEM_IUPAC_NAME>
(2,4-ditert-butylphenyl) 3,5-ditert-butyl-4-hydroxybenzoate

> <PUBCHEM_IUPAC_SYSTEMATIC_NAME>
(2,4-ditert-butylphenyl) 3,5-ditert-butyl-4-oxidanyl-benzoate

> <PUBCHEM_IUPAC_TRADITIONAL_NAME>
3,5-ditert-butyl-4-hydroxy-benzoic acid (2,4-ditert-butylphenyl) ester

> <PUBCHEM_IUPAC_INCHI>
InChI=1S/C29H42O3/c1-26(2,3)19-13-14-23(20(17-19)27(4,5)6)32-25(31)18-15-21(28(7,8)9)24(30)22(16-18)29(10,11)12/h13-17,30H,1-12H3

> <PUBCHEM_IUPAC_INCHIKEY>
KJYSXRBJOSZLEL-UHFFFAOYSA-N

> <PUBCHEM_XLOGP3_AA>
9.7

> <PUBCHEM_EXACT_MASS>
438.31339520

> <PUBCHEM_MOLECULAR_FORMULA>
C29H42O3

> <PUBCHEM_MOLECULAR_WEIGHT>
438.6

> <PUBCHEM_SMILES>
CC(C)(C)C1=CC(=C(C=C1)OC(=O)C2=CC(=C(C(=C2)C(C)(C)C)O)C(C)(C)C)C(C)(C)C

> <PUBCHEM_OPENEYE_CAN_SMILES>
CC(C)(C)C1=CC(=C(C=C1)OC(=O)C2=CC(=C(C(=C2)C(C)(C)C)O)C(C)(C)C)C(C)(C)C

> <PUBCHEM_OPENEYE_ISO_SMILES>
CC(C)(C)C1=CC(=C(C=C1)OC(=O)C2=CC(=C(C(=C2)C(C)(C)C)O)C(C)(C)C)C(C)(C)C

> <PUBCHEM_CACTVS_TPSA>
46.5

> <PUBCHEM_MONOISOTOPIC_WEIGHT>
438.31339520

> <PUBCHEM_TOTAL_CHARGE>
0

> <PUBCHEM_HEAVY_ATOM_COUNT>
32

> <PUBCHEM_ATOM_DEF_STEREO_COUNT>
0

> <PUBCHEM_ATOM_UDEF_STEREO_COUNT>
0

> <PUBCHEM_BOND_DEF_STEREO_COUNT>
0

> <PUBCHEM_BOND_UDEF_STEREO_COUNT>
0

> <PUBCHEM_ISOTOPIC_ATOM_COUNT>
0

> <PUBCHEM_COMPONENT_COUNT>
1

> <PUBCHEM_CACTVS_TAUTO_COUNT>
-1

> <PUBCHEM_COORDINATE_TYPE>
1
5
255

> <PUBCHEM_BONDANNOTATIONS>
10  13  8
10  17  8
11  13  8
11  30  8
14  16  8
15  16  8
17  31  8
30  31  8
7  12  8
7  14  8
8  12  8
8  15  8

$$$$
