83742
  -OEChem-04042506002D

 20 20  0     0  0  0  0  0  0999 V2000
    4.6261   -0.6019    0.0000 O   0  0  0  0  0  0  0  0  0  0  0  0
    2.8660   -0.8807    0.0000 N   0  0  0  0  0  0  0  0  0  0  0  0
    3.3660    0.6581    0.0000 N   0  0  0  0  0  0  0  0  0  0  0  0
    2.0570   -0.2929    0.0000 C   0  0  0  0  0  0  0  0  0  0  0  0
    2.3660    0.6581    0.0000 C   0  0  0  0  0  0  0  0  0  0  0  0
    3.6750   -0.2929    0.0000 C   0  0  0  0  0  0  0  0  0  0  0  0
    2.8660   -1.8807    0.0000 C   0  0  0  0  0  0  0  0  0  0  0  0
    3.9538    1.4672    0.0000 C   0  0  0  0  0  0  0  0  0  0  0  0
    2.0000   -2.3807    0.0000 C   0  0  0  0  0  0  0  0  0  0  0  0
    3.5471    2.3807    0.0000 C   0  0  0  0  0  0  0  0  0  0  0  0
    1.4906   -0.0407    0.0000 H   0  0  0  0  0  0  0  0  0  0  0  0
    1.7470   -0.8299    0.0000 H   0  0  0  0  0  0  0  0  0  0  0  0
    2.4308    1.2747    0.0000 H   0  0  0  0  0  0  0  0  0  0  0  0
    1.7596    0.7870    0.0000 H   0  0  0  0  0  0  0  0  0  0  0  0
    3.4030   -2.1907    0.0000 H   0  0  0  0  0  0  0  0  0  0  0  0
    4.5704    1.4024    0.0000 H   0  0  0  0  0  0  0  0  0  0  0  0
    1.4631   -2.0707    0.0000 H   0  0  0  0  0  0  0  0  0  0  0  0
    2.0000   -3.0007    0.0000 H   0  0  0  0  0  0  0  0  0  0  0  0
    3.9115    2.8823    0.0000 H   0  0  0  0  0  0  0  0  0  0  0  0
    2.9305    2.4455    0.0000 H   0  0  0  0  0  0  0  0  0  0  0  0
  1  6  2  0  0  0  0
  2  4  1  0  0  0  0
  2  6  1  0  0  0  0
  2  7  1  0  0  0  0
  3  5  1  0  0  0  0
  3  6  1  0  0  0  0
  3  8  1  0  0  0  0
  4  5  1  0  0  0  0
  4 11  1  0  0  0  0
  4 12  1  0  0  0  0
  5 13  1  0  0  0  0
  5 14  1  0  0  0  0
  7  9  2  0  0  0  0
  7 15  1  0  0  0  0
  8 10  2  0  0  0  0
  8 16  1  0  0  0  0
  9 17  1  0  0  0  0
  9 18  1  0  0  0  0
 10 19  1  0  0  0  0
 10 20  1  0  0  0  0
M  END
> <PUBCHEM_COMPOUND_CID>
83742

> <PUBCHEM_COMPOUND_CANONICALIZED>
1

> <PUBCHEM_CACTVS_COMPLEXITY>
158

> <PUBCHEM_CACTVS_HBOND_ACCEPTOR>
1

> <PUBCHEM_CACTVS_HBOND_DONOR>
0

> <PUBCHEM_CACTVS_ROTATABLE_BOND>
2

> <PUBCHEM_CACTVS_SUBSKEYS>
AAADccBjIAAAAAAAAAAAAAAAAAAAAWAAAAAAAAAAAAAAAAAAAAAAHgAAAAAAAADBAAQBAAMAAACIAAAGUAAAAAAAAgAIAAAIAACAQAAAAAAQAAAIBgIAAAAAAAAAAAAAAAAAAAAAAAAAAAAAAAAAAAAAAA==

> <PUBCHEM_IUPAC_OPENEYE_NAME>
1,3-divinylimidazolidin-2-one

> <PUBCHEM_IUPAC_CAS_NAME>
1,3-bis(ethenyl)-2-imidazolidinone

> <PUBCHEM_IUPAC_NAME_MARKUP>
1,3-bis(ethenyl)imidazolidin-2-one

> <PUBCHEM_IUPAC_NAME>
1,3-bis(ethenyl)imidazolidin-2-one

> <PUBCHEM_IUPAC_SYSTEMATIC_NAME>
1,3-bis(ethenyl)imidazolidin-2-one

> <PUBCHEM_IUPAC_TRADITIONAL_NAME>
1,3-divinyl-2-imidazolidinone

> <PUBCHEM_IUPAC_INCHI>
InChI=1S/C7H10N2O/c1-3-8-5-6-9(4-2)7(8)10/h3-4H,1-2,5-6H2

> <PUBCHEM_IUPAC_INCHIKEY>
HMYBDZFSXBJDGL-UHFFFAOYSA-N

> <PUBCHEM_XLOGP3_AA>
0.5

> <PUBCHEM_EXACT_MASS>
138.079312947

> <PUBCHEM_MOLECULAR_FORMULA>
C7H10N2O

> <PUBCHEM_MOLECULAR_WEIGHT>
138.17

> <PUBCHEM_SMILES>
C=CN1CCN(C1=O)C=C

> <PUBCHEM_OPENEYE_CAN_SMILES>
C=CN1CCN(C1=O)C=C

> <PUBCHEM_OPENEYE_ISO_SMILES>
C=CN1CCN(C1=O)C=C

> <PUBCHEM_CACTVS_TPSA>
23.6

> <PUBCHEM_MONOISOTOPIC_WEIGHT>
138.079312947

> <PUBCHEM_TOTAL_CHARGE>
0

> <PUBCHEM_HEAVY_ATOM_COUNT>
10

> <PUBCHEM_ATOM_DEF_STEREO_COUNT>
0

> <PUBCHEM_ATOM_UDEF_STEREO_COUNT>
0

> <PUBCHEM_BOND_DEF_STEREO_COUNT>
0

> <PUBCHEM_BOND_UDEF_STEREO_COUNT>
0

> <PUBCHEM_ISOTOPIC_ATOM_COUNT>
0

> <PUBCHEM_COMPONENT_COUNT>
1

> <PUBCHEM_CACTVS_TAUTO_COUNT>
-1

> <PUBCHEM_COORDINATE_TYPE>
1
5
255

$$$$
