85266
  -OEChem-04042512302D

 56 55  0     0  0  0  0  0  0999 V2000
    4.5981   -0.2500    0.0000 Si  0  0  0  0  0  0  0  0  0  0  0  0
    7.1962    0.2500    0.0000 Si  0  0  0  0  0  0  0  0  0  0  0  0
    3.7320   -0.7500    0.0000 O   0  0  0  0  0  0  0  0  0  0  0  0
    4.0981    0.6160    0.0000 O   0  0  0  0  0  0  0  0  0  0  0  0
    5.0981   -1.1160    0.0000 O   0  0  0  0  0  0  0  0  0  0  0  0
    8.0622    0.7500    0.0000 O   0  0  0  0  0  0  0  0  0  0  0  0
    7.6962   -0.6160    0.0000 O   0  0  0  0  0  0  0  0  0  0  0  0
    6.6962    1.1160    0.0000 O   0  0  0  0  0  0  0  0  0  0  0  0
    5.4641    0.2500    0.0000 C   0  0  0  0  0  0  0  0  0  0  0  0
    6.3301   -0.2500    0.0000 C   0  0  0  0  0  0  0  0  0  0  0  0
    2.8660   -0.2500    0.0000 C   0  0  0  0  0  0  0  0  0  0  0  0
    4.5981    1.4820    0.0000 C   0  0  0  0  0  0  0  0  0  0  0  0
    4.5981   -1.9820    0.0000 C   0  0  0  0  0  0  0  0  0  0  0  0
    8.9282    0.2500    0.0000 C   0  0  0  0  0  0  0  0  0  0  0  0
    7.1962   -1.4820    0.0000 C   0  0  0  0  0  0  0  0  0  0  0  0
    7.1962    1.9820    0.0000 C   0  0  0  0  0  0  0  0  0  0  0  0
    2.0000   -0.7500    0.0000 C   0  0  0  0  0  0  0  0  0  0  0  0
    4.0981    2.3481    0.0000 C   0  0  0  0  0  0  0  0  0  0  0  0
    5.0981   -2.8481    0.0000 C   0  0  0  0  0  0  0  0  0  0  0  0
    9.7942    0.7500    0.0000 C   0  0  0  0  0  0  0  0  0  0  0  0
    7.6962   -2.3481    0.0000 C   0  0  0  0  0  0  0  0  0  0  0  0
    6.6962    2.8481    0.0000 C   0  0  0  0  0  0  0  0  0  0  0  0
    5.8626    0.7249    0.0000 H   0  0  0  0  0  0  0  0  0  0  0  0
    5.0656    0.7249    0.0000 H   0  0  0  0  0  0  0  0  0  0  0  0
    5.9316   -0.7249    0.0000 H   0  0  0  0  0  0  0  0  0  0  0  0
    6.7287   -0.7249    0.0000 H   0  0  0  0  0  0  0  0  0  0  0  0
    3.2646    0.2249    0.0000 H   0  0  0  0  0  0  0  0  0  0  0  0
    2.4675    0.2249    0.0000 H   0  0  0  0  0  0  0  0  0  0  0  0
    5.0730    1.0835    0.0000 H   0  0  0  0  0  0  0  0  0  0  0  0
    5.0730    1.8806    0.0000 H   0  0  0  0  0  0  0  0  0  0  0  0
    4.1231   -1.5835    0.0000 H   0  0  0  0  0  0  0  0  0  0  0  0
    4.1231   -2.3806    0.0000 H   0  0  0  0  0  0  0  0  0  0  0  0
    8.5297   -0.2249    0.0000 H   0  0  0  0  0  0  0  0  0  0  0  0
    9.3267   -0.2249    0.0000 H   0  0  0  0  0  0  0  0  0  0  0  0
    6.7212   -1.0835    0.0000 H   0  0  0  0  0  0  0  0  0  0  0  0
    6.7212   -1.8806    0.0000 H   0  0  0  0  0  0  0  0  0  0  0  0
    7.6711    1.5835    0.0000 H   0  0  0  0  0  0  0  0  0  0  0  0
    7.6711    2.3806    0.0000 H   0  0  0  0  0  0  0  0  0  0  0  0
    1.6900   -0.2131    0.0000 H   0  0  0  0  0  0  0  0  0  0  0  0
    1.4631   -1.0600    0.0000 H   0  0  0  0  0  0  0  0  0  0  0  0
    2.3100   -1.2869    0.0000 H   0  0  0  0  0  0  0  0  0  0  0  0
    4.6350    2.6581    0.0000 H   0  0  0  0  0  0  0  0  0  0  0  0
    3.7881    2.8850    0.0000 H   0  0  0  0  0  0  0  0  0  0  0  0
    3.5611    2.0381    0.0000 H   0  0  0  0  0  0  0  0  0  0  0  0
    4.5611   -3.1581    0.0000 H   0  0  0  0  0  0  0  0  0  0  0  0
    5.4081   -3.3850    0.0000 H   0  0  0  0  0  0  0  0  0  0  0  0
    5.6350   -2.5381    0.0000 H   0  0  0  0  0  0  0  0  0  0  0  0
   10.1042    0.2131    0.0000 H   0  0  0  0  0  0  0  0  0  0  0  0
   10.3312    1.0600    0.0000 H   0  0  0  0  0  0  0  0  0  0  0  0
    9.4842    1.2869    0.0000 H   0  0  0  0  0  0  0  0  0  0  0  0
    7.1592   -2.6581    0.0000 H   0  0  0  0  0  0  0  0  0  0  0  0
    8.0062   -2.8850    0.0000 H   0  0  0  0  0  0  0  0  0  0  0  0
    8.2331   -2.0381    0.0000 H   0  0  0  0  0  0  0  0  0  0  0  0
    7.2331    3.1581    0.0000 H   0  0  0  0  0  0  0  0  0  0  0  0
    6.3862    3.3850    0.0000 H   0  0  0  0  0  0  0  0  0  0  0  0
    6.1592    2.5381    0.0000 H   0  0  0  0  0  0  0  0  0  0  0  0
  1  3  1  0  0  0  0
  1  4  1  0  0  0  0
  1  5  1  0  0  0  0
  1  9  1  0  0  0  0
  2  6  1  0  0  0  0
  2  7  1  0  0  0  0
  2  8  1  0  0  0  0
  2 10  1  0  0  0  0
  3 11  1  0  0  0  0
  4 12  1  0  0  0  0
  5 13  1  0  0  0  0
  6 14  1  0  0  0  0
  7 15  1  0  0  0  0
  8 16  1  0  0  0  0
  9 10  1  0  0  0  0
  9 23  1  0  0  0  0
  9 24  1  0  0  0  0
 10 25  1  0  0  0  0
 10 26  1  0  0  0  0
 11 17  1  0  0  0  0
 11 27  1  0  0  0  0
 11 28  1  0  0  0  0
 12 18  1  0  0  0  0
 12 29  1  0  0  0  0
 12 30  1  0  0  0  0
 13 19  1  0  0  0  0
 13 31  1  0  0  0  0
 13 32  1  0  0  0  0
 14 20  1  0  0  0  0
 14 33  1  0  0  0  0
 14 34  1  0  0  0  0
 15 21  1  0  0  0  0
 15 35  1  0  0  0  0
 15 36  1  0  0  0  0
 16 22  1  0  0  0  0
 16 37  1  0  0  0  0
 16 38  1  0  0  0  0
 17 39  1  0  0  0  0
 17 40  1  0  0  0  0
 17 41  1  0  0  0  0
 18 42  1  0  0  0  0
 18 43  1  0  0  0  0
 18 44  1  0  0  0  0
 19 45  1  0  0  0  0
 19 46  1  0  0  0  0
 19 47  1  0  0  0  0
 20 48  1  0  0  0  0
 20 49  1  0  0  0  0
 20 50  1  0  0  0  0
 21 51  1  0  0  0  0
 21 52  1  0  0  0  0
 21 53  1  0  0  0  0
 22 54  1  0  0  0  0
 22 55  1  0  0  0  0
 22 56  1  0  0  0  0
M  END
> <PUBCHEM_COMPOUND_CID>
85266

> <PUBCHEM_COMPOUND_CANONICALIZED>
1

> <PUBCHEM_CACTVS_COMPLEXITY>
208

> <PUBCHEM_CACTVS_HBOND_ACCEPTOR>
6

> <PUBCHEM_CACTVS_HBOND_DONOR>
0

> <PUBCHEM_CACTVS_ROTATABLE_BOND>
15

> <PUBCHEM_CACTVS_SUBSKEYS>
AAADcfBwOAwAAAAAAAAAAAAAAAAAAAAAAAAAAAAAAAAAAAAAAAAAGhAAAEAAAACgoAJCAAAAAAAAAAAAAAAAAAAAAAAAAAAAAAAAAAAAAAAAAAAAAAAAAAAAAAAAAAAAAAAAAAAAAAAAAAAAAAAAAAAAAA==

> <PUBCHEM_IUPAC_OPENEYE_NAME>
triethoxy(2-triethoxysilylethyl)silane

> <PUBCHEM_IUPAC_CAS_NAME>
triethoxy(2-triethoxysilylethyl)silane

> <PUBCHEM_IUPAC_NAME_MARKUP>
triethoxy(2-triethoxysilylethyl)silane

> <PUBCHEM_IUPAC_NAME>
triethoxy(2-triethoxysilylethyl)silane

> <PUBCHEM_IUPAC_SYSTEMATIC_NAME>
triethoxy(2-triethoxysilylethyl)silane

> <PUBCHEM_IUPAC_TRADITIONAL_NAME>
triethoxy(2-triethoxysilylethyl)silane

> <PUBCHEM_IUPAC_INCHI>
InChI=1S/C14H34O6Si2/c1-7-15-21(16-8-2,17-9-3)13-14-22(18-10-4,19-11-5)20-12-6/h7-14H2,1-6H3

> <PUBCHEM_IUPAC_INCHIKEY>
IZRJPHXTEXTLHY-UHFFFAOYSA-N

> <PUBCHEM_EXACT_MASS>
354.18939187

> <PUBCHEM_MOLECULAR_FORMULA>
C14H34O6Si2

> <PUBCHEM_MOLECULAR_WEIGHT>
354.59

> <PUBCHEM_SMILES>
CCO[Si](CC[Si](OCC)(OCC)OCC)(OCC)OCC

> <PUBCHEM_OPENEYE_CAN_SMILES>
CCO[Si](CC[Si](OCC)(OCC)OCC)(OCC)OCC

> <PUBCHEM_OPENEYE_ISO_SMILES>
CCO[Si](CC[Si](OCC)(OCC)OCC)(OCC)OCC

> <PUBCHEM_CACTVS_TPSA>
55.4

> <PUBCHEM_MONOISOTOPIC_WEIGHT>
354.18939187

> <PUBCHEM_TOTAL_CHARGE>
0

> <PUBCHEM_HEAVY_ATOM_COUNT>
22

> <PUBCHEM_ATOM_DEF_STEREO_COUNT>
0

> <PUBCHEM_ATOM_UDEF_STEREO_COUNT>
0

> <PUBCHEM_BOND_DEF_STEREO_COUNT>
0

> <PUBCHEM_BOND_UDEF_STEREO_COUNT>
0

> <PUBCHEM_ISOTOPIC_ATOM_COUNT>
0

> <PUBCHEM_COMPONENT_COUNT>
1

> <PUBCHEM_CACTVS_TAUTO_COUNT>
-1

> <PUBCHEM_COORDINATE_TYPE>
1
5
255

$$$$
