86261
  -OEChem-04042505442D

 53 54  0     0  0  0  0  0  0999 V2000
    6.3301    0.5950    0.0000 Cl  0  0  0  0  0  0  0  0  0  0  0  0
    2.8660    0.5950    0.0000 Cl  0  0  0  0  0  0  0  0  0  0  0  0
    8.0622   -2.4050    0.0000 N   0  0  0  0  0  0  0  0  0  0  0  0
    4.5981    3.5950    0.0000 N   0  0  0  0  0  0  0  0  0  0  0  0
    4.5981   -0.4050    0.0000 C   0  0  0  0  0  0  0  0  0  0  0  0
    5.4641   -0.9050    0.0000 C   0  0  0  0  0  0  0  0  0  0  0  0
    4.5981    0.5950    0.0000 C   0  0  0  0  0  0  0  0  0  0  0  0
    7.1962   -0.9050    0.0000 C   0  0  0  0  0  0  0  0  0  0  0  0
    3.7320    2.0950    0.0000 C   0  0  0  0  0  0  0  0  0  0  0  0
    6.3301   -2.4050    0.0000 C   0  0  0  0  0  0  0  0  0  0  0  0
    5.4641    2.0950    0.0000 C   0  0  0  0  0  0  0  0  0  0  0  0
    6.3301   -0.4050    0.0000 C   0  0  0  0  0  0  0  0  0  0  0  0
    3.7320    1.0950    0.0000 C   0  0  0  0  0  0  0  0  0  0  0  0
    5.4641   -1.9050    0.0000 C   0  0  0  0  0  0  0  0  0  0  0  0
    5.4641    1.0950    0.0000 C   0  0  0  0  0  0  0  0  0  0  0  0
    7.1962   -1.9050    0.0000 C   0  0  0  0  0  0  0  0  0  0  0  0
    4.5981    2.5950    0.0000 C   0  0  0  0  0  0  0  0  0  0  0  0
    8.0622   -0.4050    0.0000 C   0  0  0  0  0  0  0  0  0  0  0  0
    2.8660    2.5950    0.0000 C   0  0  0  0  0  0  0  0  0  0  0  0
    6.3301   -3.4050    0.0000 C   0  0  0  0  0  0  0  0  0  0  0  0
    6.3301    2.5950    0.0000 C   0  0  0  0  0  0  0  0  0  0  0  0
    8.0622    0.5950    0.0000 C   0  0  0  0  0  0  0  0  0  0  0  0
    2.0000    2.0950    0.0000 C   0  0  0  0  0  0  0  0  0  0  0  0
    5.4641   -3.9050    0.0000 C   0  0  0  0  0  0  0  0  0  0  0  0
    7.1962    2.0950    0.0000 C   0  0  0  0  0  0  0  0  0  0  0  0
    3.9875   -0.2973    0.0000 H   0  0  0  0  0  0  0  0  0  0  0  0
    4.3860   -0.9876    0.0000 H   0  0  0  0  0  0  0  0  0  0  0  0
    4.9272   -2.2150    0.0000 H   0  0  0  0  0  0  0  0  0  0  0  0
    6.0010    0.7850    0.0000 H   0  0  0  0  0  0  0  0  0  0  0  0
    8.2742   -0.9876    0.0000 H   0  0  0  0  0  0  0  0  0  0  0  0
    8.6728   -0.2973    0.0000 H   0  0  0  0  0  0  0  0  0  0  0  0
    3.2646    3.0700    0.0000 H   0  0  0  0  0  0  0  0  0  0  0  0
    2.4675    3.0700    0.0000 H   0  0  0  0  0  0  0  0  0  0  0  0
    6.5422   -3.9876    0.0000 H   0  0  0  0  0  0  0  0  0  0  0  0
    6.9407   -3.2973    0.0000 H   0  0  0  0  0  0  0  0  0  0  0  0
    6.7287    3.0700    0.0000 H   0  0  0  0  0  0  0  0  0  0  0  0
    5.9316    3.0700    0.0000 H   0  0  0  0  0  0  0  0  0  0  0  0
    8.6822    0.5950    0.0000 H   0  0  0  0  0  0  0  0  0  0  0  0
    8.0622    1.2150    0.0000 H   0  0  0  0  0  0  0  0  0  0  0  0
    7.4422    0.5950    0.0000 H   0  0  0  0  0  0  0  0  0  0  0  0
    1.6900    2.6319    0.0000 H   0  0  0  0  0  0  0  0  0  0  0  0
    1.4631    1.7850    0.0000 H   0  0  0  0  0  0  0  0  0  0  0  0
    2.3100    1.5581    0.0000 H   0  0  0  0  0  0  0  0  0  0  0  0
    5.1541   -3.3681    0.0000 H   0  0  0  0  0  0  0  0  0  0  0  0
    4.9272   -4.2150    0.0000 H   0  0  0  0  0  0  0  0  0  0  0  0
    5.7741   -4.4419    0.0000 H   0  0  0  0  0  0  0  0  0  0  0  0
    6.8862    1.5581    0.0000 H   0  0  0  0  0  0  0  0  0  0  0  0
    7.7331    1.7850    0.0000 H   0  0  0  0  0  0  0  0  0  0  0  0
    7.5062    2.6319    0.0000 H   0  0  0  0  0  0  0  0  0  0  0  0
    8.0622   -3.0250    0.0000 H   0  0  0  0  0  0  0  0  0  0  0  0
    8.5991   -2.0950    0.0000 H   0  0  0  0  0  0  0  0  0  0  0  0
    4.0611    3.9050    0.0000 H   0  0  0  0  0  0  0  0  0  0  0  0
    5.1350    3.9050    0.0000 H   0  0  0  0  0  0  0  0  0  0  0  0
  1 12  1  0  0  0  0
  2 13  1  0  0  0  0
  3 16  1  0  0  0  0
  3 50  1  0  0  0  0
  3 51  1  0  0  0  0
  4 17  1  0  0  0  0
  4 52  1  0  0  0  0
  4 53  1  0  0  0  0
  5  6  1  0  0  0  0
  5  7  1  0  0  0  0
  5 26  1  0  0  0  0
  5 27  1  0  0  0  0
  6 12  2  0  0  0  0
  6 14  1  0  0  0  0
  7 13  2  0  0  0  0
  7 15  1  0  0  0  0
  8 12  1  0  0  0  0
  8 16  2  0  0  0  0
  8 18  1  0  0  0  0
  9 13  1  0  0  0  0
  9 17  2  0  0  0  0
  9 19  1  0  0  0  0
 10 14  2  0  0  0  0
 10 16  1  0  0  0  0
 10 20  1  0  0  0  0
 11 15  2  0  0  0  0
 11 17  1  0  0  0  0
 11 21  1  0  0  0  0
 14 28  1  0  0  0  0
 15 29  1  0  0  0  0
 18 22  1  0  0  0  0
 18 30  1  0  0  0  0
 18 31  1  0  0  0  0
 19 23  1  0  0  0  0
 19 32  1  0  0  0  0
 19 33  1  0  0  0  0
 20 24  1  0  0  0  0
 20 34  1  0  0  0  0
 20 35  1  0  0  0  0
 21 25  1  0  0  0  0
 21 36  1  0  0  0  0
 21 37  1  0  0  0  0
 22 38  1  0  0  0  0
 22 39  1  0  0  0  0
 22 40  1  0  0  0  0
 23 41  1  0  0  0  0
 23 42  1  0  0  0  0
 23 43  1  0  0  0  0
 24 44  1  0  0  0  0
 24 45  1  0  0  0  0
 24 46  1  0  0  0  0
 25 47  1  0  0  0  0
 25 48  1  0  0  0  0
 25 49  1  0  0  0  0
M  END
> <PUBCHEM_COMPOUND_CID>
86261

> <PUBCHEM_COMPOUND_CANONICALIZED>
1

> <PUBCHEM_CACTVS_COMPLEXITY>
369

> <PUBCHEM_CACTVS_HBOND_ACCEPTOR>
2

> <PUBCHEM_CACTVS_HBOND_DONOR>
2

> <PUBCHEM_CACTVS_ROTATABLE_BOND>
6

> <PUBCHEM_CACTVS_SUBSKEYS>
AAADceB7AAAGAAAAAAAAAAAAAAAAAAAAAAAwYAAAAAAAAAABQAAAHAIQAAAADAqBGCAywIBAAACAAiRCQACCAAAgBAAAiAAARogIICKBk5GAIABggAAIyAcQgMAODAACAAIDAAAYAAQABAYAAAAAAAAAAA==

> <PUBCHEM_IUPAC_OPENEYE_NAME>
4-[(4-amino-2-chloro-3,5-diethyl-phenyl)methyl]-3-chloro-2,6-diethyl-aniline

> <PUBCHEM_IUPAC_CAS_NAME>
4-[(4-amino-2-chloro-3,5-diethylphenyl)methyl]-3-chloro-2,6-diethylaniline

> <PUBCHEM_IUPAC_NAME_MARKUP>
4-[(4-amino-2-chloro-3,5-diethylphenyl)methyl]-3-chloro-2,6-diethylaniline

> <PUBCHEM_IUPAC_NAME>
4-[(4-amino-2-chloro-3,5-diethylphenyl)methyl]-3-chloro-2,6-diethylaniline

> <PUBCHEM_IUPAC_SYSTEMATIC_NAME>
4-[(4-azanyl-2-chloranyl-3,5-diethyl-phenyl)methyl]-3-chloranyl-2,6-diethyl-aniline

> <PUBCHEM_IUPAC_TRADITIONAL_NAME>
[4-(4-amino-2-chloro-3,5-diethyl-benzyl)-3-chloro-2,6-diethyl-phenyl]amine

> <PUBCHEM_IUPAC_INCHI>
InChI=1S/C21H28Cl2N2/c1-5-12-9-14(18(22)16(7-3)20(12)24)11-15-10-13(6-2)21(25)17(8-4)19(15)23/h9-10H,5-8,11,24-25H2,1-4H3

> <PUBCHEM_IUPAC_INCHIKEY>
VIOMIGLBMQVNLY-UHFFFAOYSA-N

> <PUBCHEM_XLOGP3_AA>
6.9

> <PUBCHEM_EXACT_MASS>
378.1629543

> <PUBCHEM_MOLECULAR_FORMULA>
C21H28Cl2N2

> <PUBCHEM_MOLECULAR_WEIGHT>
379.4

> <PUBCHEM_SMILES>
CCC1=CC(=C(C(=C1N)CC)Cl)CC2=C(C(=C(C(=C2)CC)N)CC)Cl

> <PUBCHEM_OPENEYE_CAN_SMILES>
CCC1=CC(=C(C(=C1N)CC)Cl)CC2=C(C(=C(C(=C2)CC)N)CC)Cl

> <PUBCHEM_OPENEYE_ISO_SMILES>
CCC1=CC(=C(C(=C1N)CC)Cl)CC2=C(C(=C(C(=C2)CC)N)CC)Cl

> <PUBCHEM_CACTVS_TPSA>
52

> <PUBCHEM_MONOISOTOPIC_WEIGHT>
378.1629543

> <PUBCHEM_TOTAL_CHARGE>
0

> <PUBCHEM_HEAVY_ATOM_COUNT>
25

> <PUBCHEM_ATOM_DEF_STEREO_COUNT>
0

> <PUBCHEM_ATOM_UDEF_STEREO_COUNT>
0

> <PUBCHEM_BOND_DEF_STEREO_COUNT>
0

> <PUBCHEM_BOND_UDEF_STEREO_COUNT>
0

> <PUBCHEM_ISOTOPIC_ATOM_COUNT>
0

> <PUBCHEM_COMPONENT_COUNT>
1

> <PUBCHEM_CACTVS_TAUTO_COUNT>
-1

> <PUBCHEM_COORDINATE_TYPE>
1
5
255

> <PUBCHEM_BONDANNOTATIONS>
10  14  8
10  16  8
11  15  8
11  17  8
6  12  8
6  14  8
7  13  8
7  15  8
8  12  8
8  16  8
9  13  8
9  17  8

$$$$
