86348
  -OEChem-04042505362D

 78 80  0     0  0  0  0  0  0999 V2000
    5.9803    1.7650    0.0000 P   0  0  0  0  0  0  0  0  0  0  0  0
    5.9803    2.7649    0.0000 F   0  0  0  0  0  0  0  0  0  0  0  0
    5.0564    1.3823    0.0000 O   0  0  0  0  0  0  0  0  0  0  0  0
    6.9042    1.3823    0.0000 O   0  0  0  0  0  0  0  0  0  0  0  0
    5.9803   -0.8482    0.0000 C   0  0  0  0  0  0  0  0  0  0  0  0
    5.0564   -0.4655    0.0000 C   0  0  0  0  0  0  0  0  0  0  0  0
    6.9042   -0.4655    0.0000 C   0  0  0  0  0  0  0  0  0  0  0  0
    3.2713    1.5385    0.0000 C   0  0  0  0  0  0  0  0  0  0  0  0
    8.6893    1.5385    0.0000 C   0  0  0  0  0  0  0  0  0  0  0  0
    3.6432    0.6102    0.0000 C   0  0  0  0  0  0  0  0  0  0  0  0
    8.3174    0.6102    0.0000 C   0  0  0  0  0  0  0  0  0  0  0  0
    2.7957   -1.9692    0.0000 C   0  0  0  0  0  0  0  0  0  0  0  0
    9.1649   -1.9692    0.0000 C   0  0  0  0  0  0  0  0  0  0  0  0
    3.4014   -1.1736    0.0000 C   0  0  0  0  0  0  0  0  0  0  0  0
    8.5592   -1.1736    0.0000 C   0  0  0  0  0  0  0  0  0  0  0  0
    4.6737    0.4584    0.0000 C   0  0  0  0  0  0  0  0  0  0  0  0
    7.2869    0.4584    0.0000 C   0  0  0  0  0  0  0  0  0  0  0  0
    4.4351   -1.3016    0.0000 C   0  0  0  0  0  0  0  0  0  0  0  0
    7.5255   -1.3016    0.0000 C   0  0  0  0  0  0  0  0  0  0  0  0
    3.0028   -0.2112    0.0000 C   0  0  0  0  0  0  0  0  0  0  0  0
    8.9578   -0.2112    0.0000 C   0  0  0  0  0  0  0  0  0  0  0  0
    5.9803   -1.8482    0.0000 C   0  0  0  0  0  0  0  0  0  0  0  0
    2.8993    2.4667    0.0000 C   0  0  0  0  0  0  0  0  0  0  0  0
    2.3430    1.1665    0.0000 C   0  0  0  0  0  0  0  0  0  0  0  0
    4.1995    1.9105    0.0000 C   0  0  0  0  0  0  0  0  0  0  0  0
    9.0613    2.4667    0.0000 C   0  0  0  0  0  0  0  0  0  0  0  0
    9.6176    1.1665    0.0000 C   0  0  0  0  0  0  0  0  0  0  0  0
    7.7611    1.9105    0.0000 C   0  0  0  0  0  0  0  0  0  0  0  0
    2.1900   -2.7649    0.0000 C   0  0  0  0  0  0  0  0  0  0  0  0
    2.0000   -1.3636    0.0000 C   0  0  0  0  0  0  0  0  0  0  0  0
    3.5914   -2.5750    0.0000 C   0  0  0  0  0  0  0  0  0  0  0  0
    9.7706   -2.7649    0.0000 C   0  0  0  0  0  0  0  0  0  0  0  0
    9.9606   -1.3636    0.0000 C   0  0  0  0  0  0  0  0  0  0  0  0
    8.3692   -2.5750    0.0000 C   0  0  0  0  0  0  0  0  0  0  0  0
    6.4958   -1.1926    0.0000 H   0  0  0  0  0  0  0  0  0  0  0  0
    4.6790   -1.8716    0.0000 H   0  0  0  0  0  0  0  0  0  0  0  0
    7.2816   -1.8716    0.0000 H   0  0  0  0  0  0  0  0  0  0  0  0
    2.3884   -0.1279    0.0000 H   0  0  0  0  0  0  0  0  0  0  0  0
    9.5722   -0.1279    0.0000 H   0  0  0  0  0  0  0  0  0  0  0  0
    5.3603   -1.8482    0.0000 H   0  0  0  0  0  0  0  0  0  0  0  0
    5.9803   -2.4682    0.0000 H   0  0  0  0  0  0  0  0  0  0  0  0
    6.6003   -1.8482    0.0000 H   0  0  0  0  0  0  0  0  0  0  0  0
    3.4748    2.6974    0.0000 H   0  0  0  0  0  0  0  0  0  0  0  0
    2.6687    3.0422    0.0000 H   0  0  0  0  0  0  0  0  0  0  0  0
    2.3238    2.2361    0.0000 H   0  0  0  0  0  0  0  0  0  0  0  0
    2.1124    1.7420    0.0000 H   0  0  0  0  0  0  0  0  0  0  0  0
    1.7675    0.9359    0.0000 H   0  0  0  0  0  0  0  0  0  0  0  0
    2.5736    0.5910    0.0000 H   0  0  0  0  0  0  0  0  0  0  0  0
    4.4301    1.3350    0.0000 H   0  0  0  0  0  0  0  0  0  0  0  0
    4.7750    2.1411    0.0000 H   0  0  0  0  0  0  0  0  0  0  0  0
    3.9689    2.4860    0.0000 H   0  0  0  0  0  0  0  0  0  0  0  0
    9.6368    2.2361    0.0000 H   0  0  0  0  0  0  0  0  0  0  0  0
    9.2919    3.0422    0.0000 H   0  0  0  0  0  0  0  0  0  0  0  0
    8.4858    2.6974    0.0000 H   0  0  0  0  0  0  0  0  0  0  0  0
    9.3870    0.5910    0.0000 H   0  0  0  0  0  0  0  0  0  0  0  0
   10.1931    0.9359    0.0000 H   0  0  0  0  0  0  0  0  0  0  0  0
    9.8482    1.7420    0.0000 H   0  0  0  0  0  0  0  0  0  0  0  0
    7.9917    2.4860    0.0000 H   0  0  0  0  0  0  0  0  0  0  0  0
    7.1856    2.1411    0.0000 H   0  0  0  0  0  0  0  0  0  0  0  0
    7.5305    1.3350    0.0000 H   0  0  0  0  0  0  0  0  0  0  0  0
    1.6967   -2.3894    0.0000 H   0  0  0  0  0  0  0  0  0  0  0  0
    1.8145   -3.2583    0.0000 H   0  0  0  0  0  0  0  0  0  0  0  0
    2.6833   -3.1405    0.0000 H   0  0  0  0  0  0  0  0  0  0  0  0
    2.3755   -0.8702    0.0000 H   0  0  0  0  0  0  0  0  0  0  0  0
    1.5067   -0.9880    0.0000 H   0  0  0  0  0  0  0  0  0  0  0  0
    1.6245   -1.8569    0.0000 H   0  0  0  0  0  0  0  0  0  0  0  0
    3.2158   -3.0683    0.0000 H   0  0  0  0  0  0  0  0  0  0  0  0
    4.0847   -2.9505    0.0000 H   0  0  0  0  0  0  0  0  0  0  0  0
    3.9669   -2.0816    0.0000 H   0  0  0  0  0  0  0  0  0  0  0  0
    9.2773   -3.1405    0.0000 H   0  0  0  0  0  0  0  0  0  0  0  0
   10.1461   -3.2583    0.0000 H   0  0  0  0  0  0  0  0  0  0  0  0
   10.2639   -2.3894    0.0000 H   0  0  0  0  0  0  0  0  0  0  0  0
   10.3361   -1.8569    0.0000 H   0  0  0  0  0  0  0  0  0  0  0  0
   10.4539   -0.9880    0.0000 H   0  0  0  0  0  0  0  0  0  0  0  0
    9.5851   -0.8702    0.0000 H   0  0  0  0  0  0  0  0  0  0  0  0
    7.9937   -2.0816    0.0000 H   0  0  0  0  0  0  0  0  0  0  0  0
    7.8759   -2.9505    0.0000 H   0  0  0  0  0  0  0  0  0  0  0  0
    8.7447   -3.0683    0.0000 H   0  0  0  0  0  0  0  0  0  0  0  0
  1  2  1  0  0  0  0
  1  3  1  0  0  0  0
  1  4  1  0  0  0  0
  3 16  1  0  0  0  0
  4 17  1  0  0  0  0
  5  6  1  0  0  0  0
  5  7  1  0  0  0  0
  5 22  1  0  0  0  0
  5 35  1  0  0  0  0
  6 16  2  0  0  0  0
  6 18  1  0  0  0  0
  7 17  2  0  0  0  0
  7 19  1  0  0  0  0
  8 10  1  0  0  0  0
  8 23  1  0  0  0  0
  8 24  1  0  0  0  0
  8 25  1  0  0  0  0
  9 11  1  0  0  0  0
  9 26  1  0  0  0  0
  9 27  1  0  0  0  0
  9 28  1  0  0  0  0
 10 16  1  0  0  0  0
 10 20  2  0  0  0  0
 11 17  1  0  0  0  0
 11 21  2  0  0  0  0
 12 14  1  0  0  0  0
 12 29  1  0  0  0  0
 12 30  1  0  0  0  0
 12 31  1  0  0  0  0
 13 15  1  0  0  0  0
 13 32  1  0  0  0  0
 13 33  1  0  0  0  0
 13 34  1  0  0  0  0
 14 18  2  0  0  0  0
 14 20  1  0  0  0  0
 15 19  2  0  0  0  0
 15 21  1  0  0  0  0
 18 36  1  0  0  0  0
 19 37  1  0  0  0  0
 20 38  1  0  0  0  0
 21 39  1  0  0  0  0
 22 40  1  0  0  0  0
 22 41  1  0  0  0  0
 22 42  1  0  0  0  0
 23 43  1  0  0  0  0
 23 44  1  0  0  0  0
 23 45  1  0  0  0  0
 24 46  1  0  0  0  0
 24 47  1  0  0  0  0
 24 48  1  0  0  0  0
 25 49  1  0  0  0  0
 25 50  1  0  0  0  0
 25 51  1  0  0  0  0
 26 52  1  0  0  0  0
 26 53  1  0  0  0  0
 26 54  1  0  0  0  0
 27 55  1  0  0  0  0
 27 56  1  0  0  0  0
 27 57  1  0  0  0  0
 28 58  1  0  0  0  0
 28 59  1  0  0  0  0
 28 60  1  0  0  0  0
 29 61  1  0  0  0  0
 29 62  1  0  0  0  0
 29 63  1  0  0  0  0
 30 64  1  0  0  0  0
 30 65  1  0  0  0  0
 30 66  1  0  0  0  0
 31 67  1  0  0  0  0
 31 68  1  0  0  0  0
 31 69  1  0  0  0  0
 32 70  1  0  0  0  0
 32 71  1  0  0  0  0
 32 72  1  0  0  0  0
 33 73  1  0  0  0  0
 33 74  1  0  0  0  0
 33 75  1  0  0  0  0
 34 76  1  0  0  0  0
 34 77  1  0  0  0  0
 34 78  1  0  0  0  0
M  END
> <PUBCHEM_COMPOUND_CID>
86348

> <PUBCHEM_COMPOUND_CANONICALIZED>
1

> <PUBCHEM_CACTVS_COMPLEXITY>
637

> <PUBCHEM_CACTVS_HBOND_ACCEPTOR>
3

> <PUBCHEM_CACTVS_HBOND_DONOR>
0

> <PUBCHEM_CACTVS_ROTATABLE_BOND>
4

> <PUBCHEM_CACTVS_SUBSKEYS>
AAADcfB4MQIAAAAAAAAAAAAAAAAAAAAAAAAwYAAAAAASAAABQAAAGgAAACgADwSAmAAyBoAAARCAAiBCAAACAAAgIAAAiAAECIgIJiKAERKAMAAkwBEIiAeA4PQPoAACAAAIAABAAAQAABAAAAAAAAAAAA==

> <PUBCHEM_IUPAC_OPENEYE_NAME>
1,3,7,9-tetratert-butyl-11-fluoro-5-methyl-5H-benzo[d][1,3,2]benzodioxaphosphocine

> <PUBCHEM_IUPAC_CAS_NAME>
1,3,7,9-tetratert-butyl-11-fluoro-5-methyl-5H-benzo[d][1,3,2]benzodioxaphosphocin

> <PUBCHEM_IUPAC_NAME_MARKUP>
1,3,7,9-tetra<I>tert</I>-butyl-11-fluoro-5-methyl-5<I>H</I>-benzo[d][1,3,2]benzodioxaphosphocine

> <PUBCHEM_IUPAC_NAME>
1,3,7,9-tetratert-butyl-11-fluoro-5-methyl-5H-benzo[d][1,3,2]benzodioxaphosphocine

> <PUBCHEM_IUPAC_SYSTEMATIC_NAME>
1,3,7,9-tetratert-butyl-11-fluoranyl-5-methyl-5H-benzo[d][1,3,2]benzodioxaphosphocine

> <PUBCHEM_IUPAC_TRADITIONAL_NAME>
1,3,7,9-tetratert-butyl-11-fluoro-5-methyl-5H-benzo[d][1,3,2]benzodioxaphosphocin

> <PUBCHEM_IUPAC_INCHI>
InChI=1S/C30H44FO2P/c1-18-21-14-19(27(2,3)4)16-23(29(8,9)10)25(21)32-34(31)33-26-22(18)15-20(28(5,6)7)17-24(26)30(11,12)13/h14-18H,1-13H3

> <PUBCHEM_IUPAC_INCHIKEY>
MYMKXVFDVQUQLG-UHFFFAOYSA-N

> <PUBCHEM_XLOGP3_AA>
11.2

> <PUBCHEM_EXACT_MASS>
486.30629580

> <PUBCHEM_MOLECULAR_FORMULA>
C30H44FO2P

> <PUBCHEM_MOLECULAR_WEIGHT>
486.6

> <PUBCHEM_SMILES>
CC1C2=C(C(=CC(=C2)C(C)(C)C)C(C)(C)C)OP(OC3=C1C=C(C=C3C(C)(C)C)C(C)(C)C)F

> <PUBCHEM_OPENEYE_CAN_SMILES>
CC1C2=C(C(=CC(=C2)C(C)(C)C)C(C)(C)C)OP(OC3=C1C=C(C=C3C(C)(C)C)C(C)(C)C)F

> <PUBCHEM_OPENEYE_ISO_SMILES>
CC1C2=C(C(=CC(=C2)C(C)(C)C)C(C)(C)C)OP(OC3=C1C=C(C=C3C(C)(C)C)C(C)(C)C)F

> <PUBCHEM_CACTVS_TPSA>
18.5

> <PUBCHEM_MONOISOTOPIC_WEIGHT>
486.30629580

> <PUBCHEM_TOTAL_CHARGE>
0

> <PUBCHEM_HEAVY_ATOM_COUNT>
34

> <PUBCHEM_ATOM_DEF_STEREO_COUNT>
0

> <PUBCHEM_ATOM_UDEF_STEREO_COUNT>
0

> <PUBCHEM_BOND_DEF_STEREO_COUNT>
0

> <PUBCHEM_BOND_UDEF_STEREO_COUNT>
0

> <PUBCHEM_ISOTOPIC_ATOM_COUNT>
0

> <PUBCHEM_COMPONENT_COUNT>
1

> <PUBCHEM_CACTVS_TAUTO_COUNT>
-1

> <PUBCHEM_COORDINATE_TYPE>
1
5
255

> <PUBCHEM_BONDANNOTATIONS>
10  16  8
10  20  8
11  17  8
11  21  8
14  18  8
14  20  8
15  19  8
15  21  8
6  16  8
6  18  8
7  17  8
7  19  8

$$$$
