87064255
  -OEChem-04042505522D

  8  5  0     0  0  0  0  0  0999 V2000
    0.0000    1.7500    0.0000 Ca  0  0  0  0  0 15  0  0  0  0  0  0
    3.6530    0.0000    0.0000 Mg  0  0  0  0  0 15  0  0  0  0  0  0
    4.7690    4.0000    0.0000 O   0  0  0  0  0  0  0  0  0  0  0  0
    3.0369    4.0000    0.0000 O   0  0  0  0  0  0  0  0  0  0  0  0
    3.9030    2.5000    0.0000 O   0  0  0  0  0  0  0  0  0  0  0  0
    3.9030    3.5000    0.0000 C   0  0  0  0  0  0  0  0  0  0  0  0
    5.3059    3.6900    0.0000 H   0  0  0  0  0  0  0  0  0  0  0  0
    2.5000    3.6900    0.0000 H   0  0  0  0  0  0  0  0  0  0  0  0
  3  6  1  0  0  0  0
  3  7  1  0  0  0  0
  4  6  1  0  0  0  0
  4  8  1  0  0  0  0
  5  6  2  0  0  0  0
M  END
> <PUBCHEM_COMPOUND_CID>
87064255

> <PUBCHEM_COMPOUND_CANONICALIZED>
1

> <PUBCHEM_CACTVS_COMPLEXITY>
26.3

> <PUBCHEM_CACTVS_HBOND_ACCEPTOR>
3

> <PUBCHEM_CACTVS_HBOND_DONOR>
2

> <PUBCHEM_CACTVS_ROTATABLE_BOND>
0

> <PUBCHEM_CACTVS_SUBSKEYS>
AAADcQAAMAAAACgAAAAAAAAAAAAAAAAAAAAAAAAAAAAAAAAAAAAAAgAACAAAAAAAAAAACAAAAgAIAAAACAAAAAAAAAAAAAAAAAAAAAAAAAAAAAAAAAAAAAAAAAAAAAAAAAAAAAAAAAAAAAAAAAAAAAAAAA==

> <PUBCHEM_IUPAC_INCHI>
InChI=1S/CH2O3.Ca.Mg/c2-1(3)4;;/h(H2,2,3,4);;

> <PUBCHEM_IUPAC_INCHIKEY>
ADIXYOBIQIMPEH-UHFFFAOYSA-N

> <PUBCHEM_EXACT_MASS>
125.9480265

> <PUBCHEM_MOLECULAR_FORMULA>
CH2CaMgO3

> <PUBCHEM_MOLECULAR_WEIGHT>
126.41

> <PUBCHEM_SMILES>
C(=O)(O)O.[Mg].[Ca]

> <PUBCHEM_OPENEYE_CAN_SMILES>
C(=O)(O)O.[Mg].[Ca]

> <PUBCHEM_OPENEYE_ISO_SMILES>
C(=O)(O)O.[Mg].[Ca]

> <PUBCHEM_CACTVS_TPSA>
57.5

> <PUBCHEM_MONOISOTOPIC_WEIGHT>
125.9480265

> <PUBCHEM_TOTAL_CHARGE>
0

> <PUBCHEM_HEAVY_ATOM_COUNT>
6

> <PUBCHEM_ATOM_DEF_STEREO_COUNT>
0

> <PUBCHEM_ATOM_UDEF_STEREO_COUNT>
0

> <PUBCHEM_BOND_DEF_STEREO_COUNT>
0

> <PUBCHEM_BOND_UDEF_STEREO_COUNT>
0

> <PUBCHEM_ISOTOPIC_ATOM_COUNT>
0

> <PUBCHEM_COMPONENT_COUNT>
3

> <PUBCHEM_CACTVS_TAUTO_COUNT>
-1

> <PUBCHEM_COORDINATE_TYPE>
1
5
255

$$$$
