88680
  -OEChem-04042512302D

 31 35  0     0  0  0  0  0  0999 V2000
    3.2116    0.5398    0.0000 Cl  0  0  0  0  0  0  0  0  0  0  0  0
    4.8649   -3.1650    0.0000 Cl  0  0  0  0  0  0  0  0  0  0  0  0
    2.0000   -1.1041    0.0000 Cl  0  0  0  0  0  0  0  0  0  0  0  0
    2.8322   -2.9689    0.0000 Cl  0  0  0  0  0  0  0  0  0  0  0  0
    6.6983   -2.0503    0.0000 O   0  0  0  0  0  0  0  0  0  0  0  0
    6.2397   -0.3342    0.0000 N   0  0  0  0  0  0  0  0  0  0  0  0
    5.3737    1.1658    0.0000 N   0  0  0  0  0  0  0  0  0  0  0  0
    5.3737    0.1658    0.0000 C   0  0  0  0  0  0  0  0  0  0  0  0
    7.1057    0.1658    0.0000 C   0  0  0  0  0  0  0  0  0  0  0  0
    4.6367   -0.5013    0.0000 C   0  0  0  0  0  0  0  0  0  0  0  0
    7.1057    1.1658    0.0000 C   0  0  0  0  0  0  0  0  0  0  0  0
    5.0418   -1.4090    0.0000 C   0  0  0  0  0  0  0  0  0  0  0  0
    6.0305   -1.3060    0.0000 C   0  0  0  0  0  0  0  0  0  0  0  0
    6.2397    1.6658    0.0000 C   0  0  0  0  0  0  0  0  0  0  0  0
    7.9997    1.7005    0.0000 C   0  0  0  0  0  0  0  0  0  0  0  0
    7.9997   -0.3688    0.0000 C   0  0  0  0  0  0  0  0  0  0  0  0
    3.6086   -0.3780    0.0000 C   0  0  0  0  0  0  0  0  0  0  0  0
    4.4469   -2.2566    0.0000 C   0  0  0  0  0  0  0  0  0  0  0  0
    6.2385    2.6575    0.0000 C   0  0  0  0  0  0  0  0  0  0  0  0
    8.9057    1.1866    0.0000 C   0  0  0  0  0  0  0  0  0  0  0  0
    7.9619    2.6915    0.0000 C   0  0  0  0  0  0  0  0  0  0  0  0
    8.9057    0.1450    0.0000 C   0  0  0  0  0  0  0  0  0  0  0  0
    2.9942   -1.2116    0.0000 C   0  0  0  0  0  0  0  0  0  0  0  0
    3.4162   -2.1572    0.0000 C   0  0  0  0  0  0  0  0  0  0  0  0
    7.0905    3.1650    0.0000 C   0  0  0  0  0  0  0  0  0  0  0  0
    7.9925   -0.9888    0.0000 H   0  0  0  0  0  0  0  0  0  0  0  0
    5.6992    2.9636    0.0000 H   0  0  0  0  0  0  0  0  0  0  0  0
    9.4415    1.4987    0.0000 H   0  0  0  0  0  0  0  0  0  0  0  0
    8.4886    3.0185    0.0000 H   0  0  0  0  0  0  0  0  0  0  0  0
    9.4415   -0.1671    0.0000 H   0  0  0  0  0  0  0  0  0  0  0  0
    7.0783    3.7848    0.0000 H   0  0  0  0  0  0  0  0  0  0  0  0
  1 17  1  0  0  0  0
  2 18  1  0  0  0  0
  3 23  1  0  0  0  0
  4 24  1  0  0  0  0
  5 13  2  0  0  0  0
  6  8  1  0  0  0  0
  6  9  1  0  0  0  0
  6 13  1  0  0  0  0
  7  8  2  0  0  0  0
  7 14  1  0  0  0  0
  8 10  1  0  0  0  0
  9 11  1  0  0  0  0
  9 16  2  0  0  0  0
 10 12  2  0  0  0  0
 10 17  1  0  0  0  0
 11 14  1  0  0  0  0
 11 15  2  0  0  0  0
 12 13  1  0  0  0  0
 12 18  1  0  0  0  0
 14 19  2  0  0  0  0
 15 20  1  0  0  0  0
 15 21  1  0  0  0  0
 16 22  1  0  0  0  0
 16 26  1  0  0  0  0
 17 23  2  0  0  0  0
 18 24  2  0  0  0  0
 19 25  1  0  0  0  0
 19 27  1  0  0  0  0
 20 22  2  0  0  0  0
 20 28  1  0  0  0  0
 21 25  2  0  0  0  0
 21 29  1  0  0  0  0
 22 30  1  0  0  0  0
 23 24  1  0  0  0  0
 25 31  1  0  0  0  0
M  END
> <PUBCHEM_COMPOUND_CID>
88680

> <PUBCHEM_COMPOUND_CANONICALIZED>
1

> <PUBCHEM_CACTVS_COMPLEXITY>
628

> <PUBCHEM_CACTVS_HBOND_ACCEPTOR>
2

> <PUBCHEM_CACTVS_HBOND_DONOR>
0

> <PUBCHEM_CACTVS_ROTATABLE_BOND>
0

> <PUBCHEM_CACTVS_SUBSKEYS>
AAADcYB7IAAHAAAAAAAAAAAAAAAAAWAAAAAwYMEAAAAAAFjBVAAAHgIAAAAADAqBmCAxwMMAAACoAidydACCAAElBgAJikEgZtgIIDLB39GEIQhghADIzQcciICOhAAQYACTAAQIACDAASYACAAAAAAAAA==

> <PUBCHEM_IUPAC_OPENEYE_NAME>
5,6,7,8-tetrachloro-2,11-diazapentacyclo[10.7.1.02,10.04,9.016,20]icosa-1(19),4(9),5,7,10,12,14,16(20),17-nonaen-3-one

> <PUBCHEM_IUPAC_CAS_NAME>
5,6,7,8-tetrachloro-2,11-diazapentacyclo[10.7.1.02,10.04,9.016,20]eicosa-1(19),4(9),5,7,10,12,14,16(20),17-nonaen-3-one

> <PUBCHEM_IUPAC_NAME_MARKUP>
5,6,7,8-tetrachloro-2,11-diazapentacyclo[10.7.1.0<SUP>2,10</SUP>.0<SUP>4,9</SUP>.0<SUP>16,20</SUP>]icosa-1(19),4(9),5,7,10,12,14,16(20),17-nonaen-3-one

> <PUBCHEM_IUPAC_NAME>
5,6,7,8-tetrachloro-2,11-diazapentacyclo[10.7.1.02,10.04,9.016,20]icosa-1(19),4(9),5,7,10,12,14,16(20),17-nonaen-3-one

> <PUBCHEM_IUPAC_SYSTEMATIC_NAME>
5,6,7,8-tetrakis(chloranyl)-2,11-diazapentacyclo[10.7.1.02,10.04,9.016,20]icosa-1(19),4(9),5,7,10,12,14,16(20),17-nonaen-3-one

> <PUBCHEM_IUPAC_TRADITIONAL_NAME>
5,6,7,8-tetrachloro-2,11-diazapentacyclo[10.7.1.02,10.04,9.016,20]eicosa-1(19),4(9),5,7,10,12,14,16(20),17-nonaen-3-one

> <PUBCHEM_IUPAC_INCHI>
InChI=1S/C18H6Cl4N2O/c19-13-11-12(14(20)16(22)15(13)21)18(25)24-9-6-2-4-7-3-1-5-8(10(7)9)23-17(11)24/h1-6H

> <PUBCHEM_IUPAC_INCHIKEY>
UBZVRROHBDDCQY-UHFFFAOYSA-N

> <PUBCHEM_XLOGP3_AA>
5.9

> <PUBCHEM_EXACT_MASS>
407.920473

> <PUBCHEM_MOLECULAR_FORMULA>
C18H6Cl4N2O

> <PUBCHEM_MOLECULAR_WEIGHT>
408.1

> <PUBCHEM_SMILES>
C1=CC2=C3C(=C1)N=C4C5=C(C(=C(C(=C5Cl)Cl)Cl)Cl)C(=O)N4C3=CC=C2

> <PUBCHEM_OPENEYE_CAN_SMILES>
C1=CC2=C3C(=C1)N=C4C5=C(C(=C(C(=C5Cl)Cl)Cl)Cl)C(=O)N4C3=CC=C2

> <PUBCHEM_OPENEYE_ISO_SMILES>
C1=CC2=C3C(=C1)N=C4C5=C(C(=C(C(=C5Cl)Cl)Cl)Cl)C(=O)N4C3=CC=C2

> <PUBCHEM_CACTVS_TPSA>
32.7

> <PUBCHEM_MONOISOTOPIC_WEIGHT>
405.923424

> <PUBCHEM_TOTAL_CHARGE>
0

> <PUBCHEM_HEAVY_ATOM_COUNT>
25

> <PUBCHEM_ATOM_DEF_STEREO_COUNT>
0

> <PUBCHEM_ATOM_UDEF_STEREO_COUNT>
0

> <PUBCHEM_BOND_DEF_STEREO_COUNT>
0

> <PUBCHEM_BOND_UDEF_STEREO_COUNT>
0

> <PUBCHEM_ISOTOPIC_ATOM_COUNT>
0

> <PUBCHEM_COMPONENT_COUNT>
1

> <PUBCHEM_CACTVS_TAUTO_COUNT>
-1

> <PUBCHEM_COORDINATE_TYPE>
1
5
255

> <PUBCHEM_BONDANNOTATIONS>
10  12  8
10  17  8
11  14  8
11  15  8
12  18  8
14  19  8
15  20  8
15  21  8
16  22  8
17  23  8
18  24  8
19  25  8
20  22  8
21  25  8
23  24  8
9  11  8
9  16  8

$$$$
