90684455
  -OEChem-04042512382D

195194  0     1  0  0  0  0  0999 V2000
    8.9282    0.0000    0.0000 O   0  0  0  0  0  0  0  0  0  0  0  0
    8.9282   -3.4641    0.0000 O   0  0  0  0  0  0  0  0  0  0  0  0
   10.6603   -1.7320    0.0000 O   0  0  0  0  0  0  0  0  0  0  0  0
    7.1962   -1.7320    0.0000 O   0  0  0  0  0  0  0  0  0  0  0  0
   10.6603    1.7320    0.0000 O   0  0  0  0  0  0  0  0  0  0  0  0
    7.1962    1.7320    0.0000 O   0  0  0  0  0  0  0  0  0  0  0  0
    8.9282    3.4641    0.0000 O   0  0  0  0  0  0  0  0  0  0  0  0
    7.4282   -4.3301    0.0000 O   0  0  0  0  0  0  0  0  0  0  0  0
   11.5263   -3.2320    0.0000 O   0  0  0  0  0  0  0  0  0  0  0  0
    8.0622   -3.2320    0.0000 O   0  0  0  0  0  0  0  0  0  0  0  0
   11.5263    3.2320    0.0000 O   0  0  0  0  0  0  0  0  0  0  0  0
    6.3301    0.2321    0.0000 O   0  0  0  0  0  0  0  0  0  0  0  0
    7.4282    4.3301    0.0000 O   0  0  0  0  0  0  0  0  0  0  0  0
    8.9282   -1.7320    0.0000 C   0  0  0  0  0  0  0  0  0  0  0  0
    8.9282    1.7320    0.0000 C   0  0  0  0  0  0  0  0  0  0  0  0
    9.4282   -0.8660    0.0000 C   0  0  0  0  0  0  0  0  0  0  0  0
    9.4282    0.8660    0.0000 C   0  0  0  0  0  0  0  0  0  0  0  0
    8.4282   -2.5981    0.0000 C   0  0  0  0  0  0  0  0  0  0  0  0
    9.7942   -2.2320    0.0000 C   0  0  0  0  0  0  0  0  0  0  0  0
    8.0622   -1.2320    0.0000 C   0  0  0  0  0  0  0  0  0  0  0  0
    9.7942    2.2320    0.0000 C   0  0  0  0  0  0  0  0  0  0  0  0
    8.0622    1.2320    0.0000 C   0  0  0  0  0  0  0  0  0  0  0  0
    8.4282    2.5981    0.0000 C   0  0  0  0  0  0  0  0  0  0  0  0
    8.4282   -7.7942    0.0000 C   0  0  0  0  0  0  0  0  0  0  0  0
   14.9904   -2.2320    0.0000 C   0  0  0  0  0  0  0  0  0  0  0  0
    3.7320   -2.7320    0.0000 C   0  0  0  0  0  0  0  0  0  0  0  0
   14.9904    2.2320    0.0000 C   0  0  0  0  0  0  0  0  0  0  0  0
    2.8660    1.2320    0.0000 C   0  0  0  0  0  0  0  0  0  0  0  0
    8.4282    7.7942    0.0000 C   0  0  0  0  0  0  0  0  0  0  0  0
    8.9282   -6.9282    0.0000 C   0  0  0  0  0  0  0  0  0  0  0  0
   14.1244   -1.7320    0.0000 C   0  0  0  0  0  0  0  0  0  0  0  0
    4.5981   -3.2320    0.0000 C   0  0  0  0  0  0  0  0  0  0  0  0
   14.1244    1.7320    0.0000 C   0  0  0  0  0  0  0  0  0  0  0  0
    3.7320    1.7320    0.0000 C   0  0  0  0  0  0  0  0  0  0  0  0
    8.9282    6.9282    0.0000 C   0  0  0  0  0  0  0  0  0  0  0  0
    8.4282   -6.0622    0.0000 C   0  0  3  0  0  0  0  0  0  0  0  0
   13.2583   -2.2320    0.0000 C   0  0  3  0  0  0  0  0  0  0  0  0
    5.4641   -2.7320    0.0000 C   0  0  3  0  0  0  0  0  0  0  0  0
   13.2583    2.2320    0.0000 C   0  0  3  0  0  0  0  0  0  0  0  0
    4.5981    1.2320    0.0000 C   0  0  3  0  0  0  0  0  0  0  0  0
    8.4282    6.0622    0.0000 C   0  0  3  0  0  0  0  0  0  0  0  0
    8.9282   -5.1962    0.0000 C   0  0  0  0  0  0  0  0  0  0  0  0
   12.3923   -1.7320    0.0000 C   0  0  0  0  0  0  0  0  0  0  0  0
    6.3301   -3.2320    0.0000 C   0  0  0  0  0  0  0  0  0  0  0  0
   12.3923    1.7320    0.0000 C   0  0  0  0  0  0  0  0  0  0  0  0
    5.4641    1.7320    0.0000 C   0  0  0  0  0  0  0  0  0  0  0  0
    8.9282    5.1962    0.0000 C   0  0  0  0  0  0  0  0  0  0  0  0
    8.4282   -4.3301    0.0000 C   0  0  0  0  0  0  0  0  0  0  0  0
   11.5263   -2.2320    0.0000 C   0  0  0  0  0  0  0  0  0  0  0  0
    7.1962   -2.7320    0.0000 C   0  0  0  0  0  0  0  0  0  0  0  0
   11.5263    2.2320    0.0000 C   0  0  0  0  0  0  0  0  0  0  0  0
    6.3301    1.2320    0.0000 C   0  0  0  0  0  0  0  0  0  0  0  0
    8.4282    4.3301    0.0000 C   0  0  0  0  0  0  0  0  0  0  0  0
    7.9282   -8.6602    0.0000 C   0  0  0  0  0  0  0  0  0  0  0  0
    9.2942   -8.2942    0.0000 C   0  0  0  0  0  0  0  0  0  0  0  0
    7.5622   -7.2942    0.0000 C   0  0  0  0  0  0  0  0  0  0  0  0
   15.8564   -2.7320    0.0000 C   0  0  0  0  0  0  0  0  0  0  0  0
   15.4904   -1.3660    0.0000 C   0  0  0  0  0  0  0  0  0  0  0  0
   14.4904   -3.0981    0.0000 C   0  0  0  0  0  0  0  0  0  0  0  0
    2.8660   -2.2320    0.0000 C   0  0  0  0  0  0  0  0  0  0  0  0
    3.2320   -3.5981    0.0000 C   0  0  0  0  0  0  0  0  0  0  0  0
    4.2320   -1.8660    0.0000 C   0  0  0  0  0  0  0  0  0  0  0  0
   15.8564    2.7320    0.0000 C   0  0  0  0  0  0  0  0  0  0  0  0
   15.4904    1.3660    0.0000 C   0  0  0  0  0  0  0  0  0  0  0  0
   14.4904    3.0981    0.0000 C   0  0  0  0  0  0  0  0  0  0  0  0
    2.0000    0.7321    0.0000 C   0  0  0  0  0  0  0  0  0  0  0  0
    2.3660    2.0981    0.0000 C   0  0  0  0  0  0  0  0  0  0  0  0
    3.3660    0.3660    0.0000 C   0  0  0  0  0  0  0  0  0  0  0  0
    7.9282    8.6602    0.0000 C   0  0  0  0  0  0  0  0  0  0  0  0
    9.2942    8.2942    0.0000 C   0  0  0  0  0  0  0  0  0  0  0  0
    7.5622    7.2942    0.0000 C   0  0  0  0  0  0  0  0  0  0  0  0
    7.4282   -6.0622    0.0000 C   0  0  0  0  0  0  0  0  0  0  0  0
   13.2583   -3.2320    0.0000 C   0  0  0  0  0  0  0  0  0  0  0  0
    5.4641   -1.7320    0.0000 C   0  0  0  0  0  0  0  0  0  0  0  0
   13.2583    3.2320    0.0000 C   0  0  0  0  0  0  0  0  0  0  0  0
    4.5981    0.2321    0.0000 C   0  0  0  0  0  0  0  0  0  0  0  0
    7.4282    6.0622    0.0000 C   0  0  0  0  0  0  0  0  0  0  0  0
    9.9032   -1.2646    0.0000 H   0  0  0  0  0  0  0  0  0  0  0  0
    9.9032   -0.4675    0.0000 H   0  0  0  0  0  0  0  0  0  0  0  0
    9.9032    0.4675    0.0000 H   0  0  0  0  0  0  0  0  0  0  0  0
    9.9032    1.2646    0.0000 H   0  0  0  0  0  0  0  0  0  0  0  0
    7.9533   -2.1996    0.0000 H   0  0  0  0  0  0  0  0  0  0  0  0
    7.9533   -2.9966    0.0000 H   0  0  0  0  0  0  0  0  0  0  0  0
    9.3957   -2.7070    0.0000 H   0  0  0  0  0  0  0  0  0  0  0  0
   10.1928   -2.7070    0.0000 H   0  0  0  0  0  0  0  0  0  0  0  0
    8.4607   -0.7571    0.0000 H   0  0  0  0  0  0  0  0  0  0  0  0
    7.6636   -0.7571    0.0000 H   0  0  0  0  0  0  0  0  0  0  0  0
   10.1928    2.7070    0.0000 H   0  0  0  0  0  0  0  0  0  0  0  0
    9.3957    2.7070    0.0000 H   0  0  0  0  0  0  0  0  0  0  0  0
    7.6636    0.7571    0.0000 H   0  0  0  0  0  0  0  0  0  0  0  0
    8.4607    0.7571    0.0000 H   0  0  0  0  0  0  0  0  0  0  0  0
    7.9533    2.9966    0.0000 H   0  0  0  0  0  0  0  0  0  0  0  0
    7.9533    2.1996    0.0000 H   0  0  0  0  0  0  0  0  0  0  0  0
    9.4032   -7.3267    0.0000 H   0  0  0  0  0  0  0  0  0  0  0  0
    9.4032   -6.5297    0.0000 H   0  0  0  0  0  0  0  0  0  0  0  0
   14.5229   -1.2571    0.0000 H   0  0  0  0  0  0  0  0  0  0  0  0
   13.7258   -1.2571    0.0000 H   0  0  0  0  0  0  0  0  0  0  0  0
    4.1996   -3.7070    0.0000 H   0  0  0  0  0  0  0  0  0  0  0  0
    4.9966   -3.7070    0.0000 H   0  0  0  0  0  0  0  0  0  0  0  0
   13.7258    1.2571    0.0000 H   0  0  0  0  0  0  0  0  0  0  0  0
   14.5229    1.2571    0.0000 H   0  0  0  0  0  0  0  0  0  0  0  0
    4.1306    2.2070    0.0000 H   0  0  0  0  0  0  0  0  0  0  0  0
    3.3335    2.2070    0.0000 H   0  0  0  0  0  0  0  0  0  0  0  0
    9.4032    6.5297    0.0000 H   0  0  0  0  0  0  0  0  0  0  0  0
    9.4032    7.3267    0.0000 H   0  0  0  0  0  0  0  0  0  0  0  0
    8.1182   -5.5252    0.0000 H   0  0  0  0  0  0  0  0  0  0  0  0
   13.7953   -2.5420    0.0000 H   0  0  0  0  0  0  0  0  0  0  0  0
    6.0010   -2.4220    0.0000 H   0  0  0  0  0  0  0  0  0  0  0  0
   13.7953    2.5420    0.0000 H   0  0  0  0  0  0  0  0  0  0  0  0
    5.1350    0.9221    0.0000 H   0  0  0  0  0  0  0  0  0  0  0  0
    8.1182    6.5991    0.0000 H   0  0  0  0  0  0  0  0  0  0  0  0
    9.4032   -5.5947    0.0000 H   0  0  0  0  0  0  0  0  0  0  0  0
    9.4032   -4.7976    0.0000 H   0  0  0  0  0  0  0  0  0  0  0  0
   12.7908   -1.2571    0.0000 H   0  0  0  0  0  0  0  0  0  0  0  0
   11.9938   -1.2571    0.0000 H   0  0  0  0  0  0  0  0  0  0  0  0
    5.9316   -3.7070    0.0000 H   0  0  0  0  0  0  0  0  0  0  0  0
    6.7287   -3.7070    0.0000 H   0  0  0  0  0  0  0  0  0  0  0  0
   11.9938    1.2571    0.0000 H   0  0  0  0  0  0  0  0  0  0  0  0
   12.7908    1.2571    0.0000 H   0  0  0  0  0  0  0  0  0  0  0  0
    5.8626    2.2070    0.0000 H   0  0  0  0  0  0  0  0  0  0  0  0
    5.0656    2.2070    0.0000 H   0  0  0  0  0  0  0  0  0  0  0  0
    9.4032    4.7976    0.0000 H   0  0  0  0  0  0  0  0  0  0  0  0
    9.4032    5.5947    0.0000 H   0  0  0  0  0  0  0  0  0  0  0  0
    7.3913   -8.3503    0.0000 H   0  0  0  0  0  0  0  0  0  0  0  0
    7.6182   -9.1972    0.0000 H   0  0  0  0  0  0  0  0  0  0  0  0
    8.4651   -8.9702    0.0000 H   0  0  0  0  0  0  0  0  0  0  0  0
    8.9842   -8.8312    0.0000 H   0  0  0  0  0  0  0  0  0  0  0  0
    9.8312   -8.6042    0.0000 H   0  0  0  0  0  0  0  0  0  0  0  0
    9.6042   -7.7573    0.0000 H   0  0  0  0  0  0  0  0  0  0  0  0
    7.8722   -6.7573    0.0000 H   0  0  0  0  0  0  0  0  0  0  0  0
    7.0252   -6.9842    0.0000 H   0  0  0  0  0  0  0  0  0  0  0  0
    7.2522   -7.8312    0.0000 H   0  0  0  0  0  0  0  0  0  0  0  0
   15.5464   -3.2690    0.0000 H   0  0  0  0  0  0  0  0  0  0  0  0
   16.3933   -3.0420    0.0000 H   0  0  0  0  0  0  0  0  0  0  0  0
   16.1664   -2.1951    0.0000 H   0  0  0  0  0  0  0  0  0  0  0  0
   16.0273   -1.6760    0.0000 H   0  0  0  0  0  0  0  0  0  0  0  0
   15.8004   -0.8291    0.0000 H   0  0  0  0  0  0  0  0  0  0  0  0
   14.9534   -1.0560    0.0000 H   0  0  0  0  0  0  0  0  0  0  0  0
   13.9534   -2.7881    0.0000 H   0  0  0  0  0  0  0  0  0  0  0  0
   14.1804   -3.6350    0.0000 H   0  0  0  0  0  0  0  0  0  0  0  0
   15.0273   -3.4081    0.0000 H   0  0  0  0  0  0  0  0  0  0  0  0
    3.1760   -1.6951    0.0000 H   0  0  0  0  0  0  0  0  0  0  0  0
    2.3291   -1.9220    0.0000 H   0  0  0  0  0  0  0  0  0  0  0  0
    2.5560   -2.7690    0.0000 H   0  0  0  0  0  0  0  0  0  0  0  0
    2.6951   -3.2881    0.0000 H   0  0  0  0  0  0  0  0  0  0  0  0
    2.9220   -4.1350    0.0000 H   0  0  0  0  0  0  0  0  0  0  0  0
    3.7690   -3.9081    0.0000 H   0  0  0  0  0  0  0  0  0  0  0  0
    4.7690   -2.1760    0.0000 H   0  0  0  0  0  0  0  0  0  0  0  0
    4.5420   -1.3291    0.0000 H   0  0  0  0  0  0  0  0  0  0  0  0
    3.6951   -1.5560    0.0000 H   0  0  0  0  0  0  0  0  0  0  0  0
   16.1664    2.1951    0.0000 H   0  0  0  0  0  0  0  0  0  0  0  0
   16.3933    3.0420    0.0000 H   0  0  0  0  0  0  0  0  0  0  0  0
   15.5464    3.2690    0.0000 H   0  0  0  0  0  0  0  0  0  0  0  0
   14.9534    1.0560    0.0000 H   0  0  0  0  0  0  0  0  0  0  0  0
   15.8004    0.8291    0.0000 H   0  0  0  0  0  0  0  0  0  0  0  0
   16.0273    1.6760    0.0000 H   0  0  0  0  0  0  0  0  0  0  0  0
   15.0273    3.4081    0.0000 H   0  0  0  0  0  0  0  0  0  0  0  0
   14.1804    3.6350    0.0000 H   0  0  0  0  0  0  0  0  0  0  0  0
   13.9534    2.7881    0.0000 H   0  0  0  0  0  0  0  0  0  0  0  0
    1.6900    1.2690    0.0000 H   0  0  0  0  0  0  0  0  0  0  0  0
    1.4631    0.4221    0.0000 H   0  0  0  0  0  0  0  0  0  0  0  0
    2.3100    0.1951    0.0000 H   0  0  0  0  0  0  0  0  0  0  0  0
    2.9030    2.4081    0.0000 H   0  0  0  0  0  0  0  0  0  0  0  0
    2.0560    2.6350    0.0000 H   0  0  0  0  0  0  0  0  0  0  0  0
    1.8291    1.7881    0.0000 H   0  0  0  0  0  0  0  0  0  0  0  0
    2.8291    0.0560    0.0000 H   0  0  0  0  0  0  0  0  0  0  0  0
    3.6760   -0.1709    0.0000 H   0  0  0  0  0  0  0  0  0  0  0  0
    3.9030    0.6760    0.0000 H   0  0  0  0  0  0  0  0  0  0  0  0
    8.4651    8.9702    0.0000 H   0  0  0  0  0  0  0  0  0  0  0  0
    7.6182    9.1972    0.0000 H   0  0  0  0  0  0  0  0  0  0  0  0
    7.3913    8.3503    0.0000 H   0  0  0  0  0  0  0  0  0  0  0  0
    9.6042    7.7573    0.0000 H   0  0  0  0  0  0  0  0  0  0  0  0
    9.8312    8.6042    0.0000 H   0  0  0  0  0  0  0  0  0  0  0  0
    8.9842    8.8312    0.0000 H   0  0  0  0  0  0  0  0  0  0  0  0
    7.2522    7.8312    0.0000 H   0  0  0  0  0  0  0  0  0  0  0  0
    7.0252    6.9842    0.0000 H   0  0  0  0  0  0  0  0  0  0  0  0
    7.8722    6.7573    0.0000 H   0  0  0  0  0  0  0  0  0  0  0  0
    7.4282   -5.4422    0.0000 H   0  0  0  0  0  0  0  0  0  0  0  0
    6.8082   -6.0622    0.0000 H   0  0  0  0  0  0  0  0  0  0  0  0
    7.4282   -6.6822    0.0000 H   0  0  0  0  0  0  0  0  0  0  0  0
   12.6383   -3.2320    0.0000 H   0  0  0  0  0  0  0  0  0  0  0  0
   13.2583   -3.8520    0.0000 H   0  0  0  0  0  0  0  0  0  0  0  0
   13.8783   -3.2320    0.0000 H   0  0  0  0  0  0  0  0  0  0  0  0
    6.0841   -1.7320    0.0000 H   0  0  0  0  0  0  0  0  0  0  0  0
    5.4641   -1.1120    0.0000 H   0  0  0  0  0  0  0  0  0  0  0  0
    4.8441   -1.7320    0.0000 H   0  0  0  0  0  0  0  0  0  0  0  0
   13.8783    3.2320    0.0000 H   0  0  0  0  0  0  0  0  0  0  0  0
   13.2583    3.8520    0.0000 H   0  0  0  0  0  0  0  0  0  0  0  0
   12.6383    3.2320    0.0000 H   0  0  0  0  0  0  0  0  0  0  0  0
    3.9781    0.2321    0.0000 H   0  0  0  0  0  0  0  0  0  0  0  0
    4.5981   -0.3879    0.0000 H   0  0  0  0  0  0  0  0  0  0  0  0
    5.2181    0.2321    0.0000 H   0  0  0  0  0  0  0  0  0  0  0  0
    7.4282    6.6822    0.0000 H   0  0  0  0  0  0  0  0  0  0  0  0
    6.8082    6.0622    0.0000 H   0  0  0  0  0  0  0  0  0  0  0  0
    7.4282    5.4422    0.0000 H   0  0  0  0  0  0  0  0  0  0  0  0
  1 16  1  0  0  0  0
  1 17  1  0  0  0  0
  2 18  1  0  0  0  0
  2 48  1  0  0  0  0
  3 19  1  0  0  0  0
  3 49  1  0  0  0  0
  4 20  1  0  0  0  0
  4 50  1  0  0  0  0
  5 21  1  0  0  0  0
  5 51  1  0  0  0  0
  6 22  1  0  0  0  0
  6 52  1  0  0  0  0
  7 23  1  0  0  0  0
  7 53  1  0  0  0  0
  8 48  2  0  0  0  0
  9 49  2  0  0  0  0
 10 50  2  0  0  0  0
 11 51  2  0  0  0  0
 12 52  2  0  0  0  0
 13 53  2  0  0  0  0
 14 16  1  0  0  0  0
 14 18  1  0  0  0  0
 14 19  1  0  0  0  0
 14 20  1  0  0  0  0
 15 17  1  0  0  0  0
 15 21  1  0  0  0  0
 15 22  1  0  0  0  0
 15 23  1  0  0  0  0
 16 78  1  0  0  0  0
 16 79  1  0  0  0  0
 17 80  1  0  0  0  0
 17 81  1  0  0  0  0
 18 82  1  0  0  0  0
 18 83  1  0  0  0  0
 19 84  1  0  0  0  0
 19 85  1  0  0  0  0
 20 86  1  0  0  0  0
 20 87  1  0  0  0  0
 21 88  1  0  0  0  0
 21 89  1  0  0  0  0
 22 90  1  0  0  0  0
 22 91  1  0  0  0  0
 23 92  1  0  0  0  0
 23 93  1  0  0  0  0
 24 30  1  0  0  0  0
 24 54  1  0  0  0  0
 24 55  1  0  0  0  0
 24 56  1  0  0  0  0
 25 31  1  0  0  0  0
 25 57  1  0  0  0  0
 25 58  1  0  0  0  0
 25 59  1  0  0  0  0
 26 32  1  0  0  0  0
 26 60  1  0  0  0  0
 26 61  1  0  0  0  0
 26 62  1  0  0  0  0
 27 33  1  0  0  0  0
 27 63  1  0  0  0  0
 27 64  1  0  0  0  0
 27 65  1  0  0  0  0
 28 34  1  0  0  0  0
 28 66  1  0  0  0  0
 28 67  1  0  0  0  0
 28 68  1  0  0  0  0
 29 35  1  0  0  0  0
 29 69  1  0  0  0  0
 29 70  1  0  0  0  0
 29 71  1  0  0  0  0
 30 36  1  0  0  0  0
 30 94  1  0  0  0  0
 30 95  1  0  0  0  0
 31 37  1  0  0  0  0
 31 96  1  0  0  0  0
 31 97  1  0  0  0  0
 32 38  1  0  0  0  0
 32 98  1  0  0  0  0
 32 99  1  0  0  0  0
 33 39  1  0  0  0  0
 33100  1  0  0  0  0
 33101  1  0  0  0  0
 34 40  1  0  0  0  0
 34102  1  0  0  0  0
 34103  1  0  0  0  0
 35 41  1  0  0  0  0
 35104  1  0  0  0  0
 35105  1  0  0  0  0
 36 42  1  0  0  0  0
 36 72  1  0  0  0  0
 36106  1  0  0  0  0
 37 43  1  0  0  0  0
 37 73  1  0  0  0  0
 37107  1  0  0  0  0
 38 44  1  0  0  0  0
 38 74  1  0  0  0  0
 38108  1  0  0  0  0
 39 45  1  0  0  0  0
 39 75  1  0  0  0  0
 39109  1  0  0  0  0
 40 46  1  0  0  0  0
 40 76  1  0  0  0  0
 40110  1  0  0  0  0
 41 47  1  0  0  0  0
 41 77  1  0  0  0  0
 41111  1  0  0  0  0
 42 48  1  0  0  0  0
 42112  1  0  0  0  0
 42113  1  0  0  0  0
 43 49  1  0  0  0  0
 43114  1  0  0  0  0
 43115  1  0  0  0  0
 44 50  1  0  0  0  0
 44116  1  0  0  0  0
 44117  1  0  0  0  0
 45 51  1  0  0  0  0
 45118  1  0  0  0  0
 45119  1  0  0  0  0
 46 52  1  0  0  0  0
 46120  1  0  0  0  0
 46121  1  0  0  0  0
 47 53  1  0  0  0  0
 47122  1  0  0  0  0
 47123  1  0  0  0  0
 54124  1  0  0  0  0
 54125  1  0  0  0  0
 54126  1  0  0  0  0
 55127  1  0  0  0  0
 55128  1  0  0  0  0
 55129  1  0  0  0  0
 56130  1  0  0  0  0
 56131  1  0  0  0  0
 56132  1  0  0  0  0
 57133  1  0  0  0  0
 57134  1  0  0  0  0
 57135  1  0  0  0  0
 58136  1  0  0  0  0
 58137  1  0  0  0  0
 58138  1  0  0  0  0
 59139  1  0  0  0  0
 59140  1  0  0  0  0
 59141  1  0  0  0  0
 60142  1  0  0  0  0
 60143  1  0  0  0  0
 60144  1  0  0  0  0
 61145  1  0  0  0  0
 61146  1  0  0  0  0
 61147  1  0  0  0  0
 62148  1  0  0  0  0
 62149  1  0  0  0  0
 62150  1  0  0  0  0
 63151  1  0  0  0  0
 63152  1  0  0  0  0
 63153  1  0  0  0  0
 64154  1  0  0  0  0
 64155  1  0  0  0  0
 64156  1  0  0  0  0
 65157  1  0  0  0  0
 65158  1  0  0  0  0
 65159  1  0  0  0  0
 66160  1  0  0  0  0
 66161  1  0  0  0  0
 66162  1  0  0  0  0
 67163  1  0  0  0  0
 67164  1  0  0  0  0
 67165  1  0  0  0  0
 68166  1  0  0  0  0
 68167  1  0  0  0  0
 68168  1  0  0  0  0
 69169  1  0  0  0  0
 69170  1  0  0  0  0
 69171  1  0  0  0  0
 70172  1  0  0  0  0
 70173  1  0  0  0  0
 70174  1  0  0  0  0
 71175  1  0  0  0  0
 71176  1  0  0  0  0
 71177  1  0  0  0  0
 72178  1  0  0  0  0
 72179  1  0  0  0  0
 72180  1  0  0  0  0
 73181  1  0  0  0  0
 73182  1  0  0  0  0
 73183  1  0  0  0  0
 74184  1  0  0  0  0
 74185  1  0  0  0  0
 74186  1  0  0  0  0
 75187  1  0  0  0  0
 75188  1  0  0  0  0
 75189  1  0  0  0  0
 76190  1  0  0  0  0
 76191  1  0  0  0  0
 76192  1  0  0  0  0
 77193  1  0  0  0  0
 77194  1  0  0  0  0
 77195  1  0  0  0  0
M  END
> <PUBCHEM_COMPOUND_CID>
90684455

> <PUBCHEM_COMPOUND_CANONICALIZED>
1

> <PUBCHEM_CACTVS_COMPLEXITY>
1450

> <PUBCHEM_CACTVS_HBOND_ACCEPTOR>
13

> <PUBCHEM_CACTVS_HBOND_DONOR>
0

> <PUBCHEM_CACTVS_ROTATABLE_BOND>
46

> <PUBCHEM_CACTVS_SUBSKEYS>
AAADcfB8PAAAAAAAAAAAAAAAAAAAAAAAAAAAAAAAAAAAAAAAAAAAGgAAAAAADwCggAICCAAABAAIAACQCAAAAAAAAAAAAAEAAAAAABIAAAACAAAFAAAAAAGISBAPAAAAAAAAAAAAAAAAAAAAAAAAAAAAAA==

> <PUBCHEM_IUPAC_OPENEYE_NAME>
[3-(3,5,5-trimethylhexanoyloxy)-2-[[3-(3,5,5-trimethylhexanoyloxy)-2,2-bis(3,5,5-trimethylhexanoyloxymethyl)propoxy]methyl]-2-(3,5,5-trimethylhexanoyloxymethyl)propyl] 3,5,5-trimethylhexanoate

> <PUBCHEM_IUPAC_CAS_NAME>
3,5,5-trimethylhexanoic acid [3-(3,5,5-trimethyl-1-oxohexoxy)-2-[[3-(3,5,5-trimethyl-1-oxohexoxy)-2,2-bis[(3,5,5-trimethyl-1-oxohexoxy)methyl]propoxy]methyl]-2-[(3,5,5-trimethyl-1-oxohexoxy)methyl]propyl] ester

> <PUBCHEM_IUPAC_NAME_MARKUP>
[3-(3,5,5-trimethylhexanoyloxy)-2-[[3-(3,5,5-trimethylhexanoyloxy)-2,2-bis(3,5,5-trimethylhexanoyloxymethyl)propoxy]methyl]-2-(3,5,5-trimethylhexanoyloxymethyl)propyl] 3,5,5-trimethylhexanoate

> <PUBCHEM_IUPAC_NAME>
[3-(3,5,5-trimethylhexanoyloxy)-2-[[3-(3,5,5-trimethylhexanoyloxy)-2,2-bis(3,5,5-trimethylhexanoyloxymethyl)propoxy]methyl]-2-(3,5,5-trimethylhexanoyloxymethyl)propyl] 3,5,5-trimethylhexanoate

> <PUBCHEM_IUPAC_SYSTEMATIC_NAME>
[3-(3,5,5-trimethylhexanoyloxy)-2-[[3-(3,5,5-trimethylhexanoyloxy)-2,2-bis(3,5,5-trimethylhexanoyloxymethyl)propoxy]methyl]-2-(3,5,5-trimethylhexanoyloxymethyl)propyl] 3,5,5-trimethylhexanoate

> <PUBCHEM_IUPAC_TRADITIONAL_NAME>
3,5,5-trimethylhexanoic acid [3-(3,5,5-trimethylhexanoyloxy)-2-[[3-(3,5,5-trimethylhexanoyloxy)-2,2-bis(3,5,5-trimethylhexanoyloxymethyl)propoxy]methyl]-2-(3,5,5-trimethylhexanoyloxymethyl)propyl] ester

> <PUBCHEM_IUPAC_INCHI>
InChI=1S/C64H118O13/c1-45(31-57(7,8)9)25-51(65)72-39-63(40-73-52(66)26-46(2)32-58(10,11)12,41-74-53(67)27-47(3)33-59(13,14)15)37-71-38-64(42-75-54(68)28-48(4)34-60(16,17)18,43-76-55(69)29-49(5)35-61(19,20)21)44-77-56(70)30-50(6)36-62(22,23)24/h45-50H,25-44H2,1-24H3

> <PUBCHEM_IUPAC_INCHIKEY>
GJIDQGCYINNRBJ-UHFFFAOYSA-N

> <PUBCHEM_XLOGP3_AA>
17.6

> <PUBCHEM_EXACT_MASS>
1094.85724381

> <PUBCHEM_MOLECULAR_FORMULA>
C64H118O13

> <PUBCHEM_MOLECULAR_WEIGHT>
1095.6

> <PUBCHEM_SMILES>
CC(CC(=O)OCC(COCC(COC(=O)CC(C)CC(C)(C)C)(COC(=O)CC(C)CC(C)(C)C)COC(=O)CC(C)CC(C)(C)C)(COC(=O)CC(C)CC(C)(C)C)COC(=O)CC(C)CC(C)(C)C)CC(C)(C)C

> <PUBCHEM_OPENEYE_CAN_SMILES>
CC(CC(=O)OCC(COCC(COC(=O)CC(C)CC(C)(C)C)(COC(=O)CC(C)CC(C)(C)C)COC(=O)CC(C)CC(C)(C)C)(COC(=O)CC(C)CC(C)(C)C)COC(=O)CC(C)CC(C)(C)C)CC(C)(C)C

> <PUBCHEM_OPENEYE_ISO_SMILES>
CC(CC(=O)OCC(COCC(COC(=O)CC(C)CC(C)(C)C)(COC(=O)CC(C)CC(C)(C)C)COC(=O)CC(C)CC(C)(C)C)(COC(=O)CC(C)CC(C)(C)C)COC(=O)CC(C)CC(C)(C)C)CC(C)(C)C

> <PUBCHEM_CACTVS_TPSA>
167

> <PUBCHEM_MONOISOTOPIC_WEIGHT>
1094.85724381

> <PUBCHEM_TOTAL_CHARGE>
0

> <PUBCHEM_HEAVY_ATOM_COUNT>
77

> <PUBCHEM_ATOM_DEF_STEREO_COUNT>
0

> <PUBCHEM_ATOM_UDEF_STEREO_COUNT>
6

> <PUBCHEM_BOND_DEF_STEREO_COUNT>
0

> <PUBCHEM_BOND_UDEF_STEREO_COUNT>
0

> <PUBCHEM_ISOTOPIC_ATOM_COUNT>
0

> <PUBCHEM_COMPONENT_COUNT>
1

> <PUBCHEM_CACTVS_TAUTO_COUNT>
-1

> <PUBCHEM_COORDINATE_TYPE>
1
5
255

> <PUBCHEM_BONDANNOTATIONS>
36  72  3
37  73  3
38  74  3
39  75  3
40  76  3
41  77  3

$$$$
