91290213
  -OEChem-04042512432D

 62 61  0     0  0  0  0  0  0999 V2000
    8.9282   -0.8660    0.0000 O   0  0  0  0  0  0  0  0  0  0  0  0
   10.6603   -2.5981    0.0000 O   0  0  0  0  0  0  0  0  0  0  0  0
    7.1962   -2.5981    0.0000 O   0  0  0  0  0  0  0  0  0  0  0  0
    7.4282    0.0000    0.0000 O   0  0  0  0  0  0  0  0  0  0  0  0
   11.5263   -1.0981    0.0000 O   0  0  0  0  0  0  0  0  0  0  0  0
    6.3301   -4.0981    0.0000 O   0  0  0  0  0  0  0  0  0  0  0  0
    8.9282   -2.5981    0.0000 C   0  0  0  0  0  0  0  0  0  0  0  0
    9.4282   -3.4641    0.0000 C   0  0  0  0  0  0  0  0  0  0  0  0
    8.4282   -1.7320    0.0000 C   0  0  0  0  0  0  0  0  0  0  0  0
    9.7942   -2.0981    0.0000 C   0  0  0  0  0  0  0  0  0  0  0  0
    8.0622   -3.0981    0.0000 C   0  0  0  0  0  0  0  0  0  0  0  0
    8.9282   -4.3301    0.0000 C   0  0  0  0  0  0  0  0  0  0  0  0
    8.4282    0.0000    0.0000 C   0  0  0  0  0  0  0  0  0  0  0  0
   11.5263   -2.0981    0.0000 C   0  0  0  0  0  0  0  0  0  0  0  0
    6.3301   -3.0981    0.0000 C   0  0  0  0  0  0  0  0  0  0  0  0
    8.9282    0.8660    0.0000 C   0  0  0  0  0  0  0  0  0  0  0  0
   12.3923   -2.5981    0.0000 C   0  0  0  0  0  0  0  0  0  0  0  0
    5.4641   -2.5981    0.0000 C   0  0  0  0  0  0  0  0  0  0  0  0
    8.4282    1.7320    0.0000 C   0  0  0  0  0  0  0  0  0  0  0  0
   13.2583   -2.0981    0.0000 C   0  0  0  0  0  0  0  0  0  0  0  0
    4.5981   -3.0981    0.0000 C   0  0  0  0  0  0  0  0  0  0  0  0
    8.9282    2.5981    0.0000 C   0  0  0  0  0  0  0  0  0  0  0  0
   14.1244   -2.5981    0.0000 C   0  0  0  0  0  0  0  0  0  0  0  0
    3.7320   -2.5981    0.0000 C   0  0  0  0  0  0  0  0  0  0  0  0
    8.4282    3.4641    0.0000 C   0  0  0  0  0  0  0  0  0  0  0  0
   14.9904   -2.0981    0.0000 C   0  0  0  0  0  0  0  0  0  0  0  0
    2.8660   -3.0981    0.0000 C   0  0  0  0  0  0  0  0  0  0  0  0
    8.9282    4.3301    0.0000 C   0  0  0  0  0  0  0  0  0  0  0  0
   15.8564   -2.5981    0.0000 C   0  0  0  0  0  0  0  0  0  0  0  0
    2.0000   -2.5981    0.0000 C   0  0  0  0  0  0  0  0  0  0  0  0
    9.9032   -3.8626    0.0000 H   0  0  0  0  0  0  0  0  0  0  0  0
    9.9032   -3.0656    0.0000 H   0  0  0  0  0  0  0  0  0  0  0  0
    7.9533   -1.3335    0.0000 H   0  0  0  0  0  0  0  0  0  0  0  0
    7.9533   -2.1306    0.0000 H   0  0  0  0  0  0  0  0  0  0  0  0
   10.1928   -1.6231    0.0000 H   0  0  0  0  0  0  0  0  0  0  0  0
    9.3957   -1.6231    0.0000 H   0  0  0  0  0  0  0  0  0  0  0  0
    7.6636   -3.5730    0.0000 H   0  0  0  0  0  0  0  0  0  0  0  0
    8.4607   -3.5730    0.0000 H   0  0  0  0  0  0  0  0  0  0  0  0
    8.3913   -4.0201    0.0000 H   0  0  0  0  0  0  0  0  0  0  0  0
    8.6182   -4.8671    0.0000 H   0  0  0  0  0  0  0  0  0  0  0  0
    9.4651   -4.6401    0.0000 H   0  0  0  0  0  0  0  0  0  0  0  0
    9.5482    0.8660    0.0000 H   0  0  0  0  0  0  0  0  0  0  0  0
   12.3923   -3.2181    0.0000 H   0  0  0  0  0  0  0  0  0  0  0  0
    5.4641   -1.9781    0.0000 H   0  0  0  0  0  0  0  0  0  0  0  0
    7.8082    1.7320    0.0000 H   0  0  0  0  0  0  0  0  0  0  0  0
   13.2583   -1.4781    0.0000 H   0  0  0  0  0  0  0  0  0  0  0  0
    4.5981   -3.7181    0.0000 H   0  0  0  0  0  0  0  0  0  0  0  0
    9.5482    2.5981    0.0000 H   0  0  0  0  0  0  0  0  0  0  0  0
   14.1244   -3.2181    0.0000 H   0  0  0  0  0  0  0  0  0  0  0  0
    3.7320   -1.9781    0.0000 H   0  0  0  0  0  0  0  0  0  0  0  0
    7.8082    3.4641    0.0000 H   0  0  0  0  0  0  0  0  0  0  0  0
   14.9904   -1.4781    0.0000 H   0  0  0  0  0  0  0  0  0  0  0  0
    2.8660   -3.7181    0.0000 H   0  0  0  0  0  0  0  0  0  0  0  0
    9.4651    4.0201    0.0000 H   0  0  0  0  0  0  0  0  0  0  0  0
    9.2382    4.8671    0.0000 H   0  0  0  0  0  0  0  0  0  0  0  0
    8.3913    4.6401    0.0000 H   0  0  0  0  0  0  0  0  0  0  0  0
   15.5464   -3.1350    0.0000 H   0  0  0  0  0  0  0  0  0  0  0  0
   16.3933   -2.9081    0.0000 H   0  0  0  0  0  0  0  0  0  0  0  0
   16.1664   -2.0611    0.0000 H   0  0  0  0  0  0  0  0  0  0  0  0
    2.3100   -2.0611    0.0000 H   0  0  0  0  0  0  0  0  0  0  0  0
    1.4631   -2.2881    0.0000 H   0  0  0  0  0  0  0  0  0  0  0  0
    1.6900   -3.1350    0.0000 H   0  0  0  0  0  0  0  0  0  0  0  0
  1  9  1  0  0  0  0
  1 13  1  0  0  0  0
  2 10  1  0  0  0  0
  2 14  1  0  0  0  0
  3 11  1  0  0  0  0
  3 15  1  0  0  0  0
  4 13  2  0  0  0  0
  5 14  2  0  0  0  0
  6 15  2  0  0  0  0
  7  8  1  0  0  0  0
  7  9  1  0  0  0  0
  7 10  1  0  0  0  0
  7 11  1  0  0  0  0
  8 12  1  0  0  0  0
  8 31  1  0  0  0  0
  8 32  1  0  0  0  0
  9 33  1  0  0  0  0
  9 34  1  0  0  0  0
 10 35  1  0  0  0  0
 10 36  1  0  0  0  0
 11 37  1  0  0  0  0
 11 38  1  0  0  0  0
 12 39  1  0  0  0  0
 12 40  1  0  0  0  0
 12 41  1  0  0  0  0
 13 16  1  0  0  0  0
 14 17  1  0  0  0  0
 15 18  1  0  0  0  0
 16 19  2  3  0  0  0
 16 42  1  0  0  0  0
 17 20  2  3  0  0  0
 17 43  1  0  0  0  0
 18 21  2  3  0  0  0
 18 44  1  0  0  0  0
 19 22  1  0  0  0  0
 19 45  1  0  0  0  0
 20 23  1  0  0  0  0
 20 46  1  0  0  0  0
 21 24  1  0  0  0  0
 21 47  1  0  0  0  0
 22 25  2  3  0  0  0
 22 48  1  0  0  0  0
 23 26  2  3  0  0  0
 23 49  1  0  0  0  0
 24 27  2  3  0  0  0
 24 50  1  0  0  0  0
 25 28  1  0  0  0  0
 25 51  1  0  0  0  0
 26 29  1  0  0  0  0
 26 52  1  0  0  0  0
 27 30  1  0  0  0  0
 27 53  1  0  0  0  0
 28 54  1  0  0  0  0
 28 55  1  0  0  0  0
 28 56  1  0  0  0  0
 29 57  1  0  0  0  0
 29 58  1  0  0  0  0
 29 59  1  0  0  0  0
 30 60  1  0  0  0  0
 30 61  1  0  0  0  0
 30 62  1  0  0  0  0
M  END
> <PUBCHEM_COMPOUND_CID>
91290213

> <PUBCHEM_COMPOUND_CANONICALIZED>
1

> <PUBCHEM_CACTVS_COMPLEXITY>
614

> <PUBCHEM_CACTVS_HBOND_ACCEPTOR>
6

> <PUBCHEM_CACTVS_HBOND_DONOR>
0

> <PUBCHEM_CACTVS_ROTATABLE_BOND>
16

> <PUBCHEM_CACTVS_SUBSKEYS>
AAADcfB4OAAAAAAAAAAAAAAAAAAAAAAAAAAAAAAAAAAAAAAAAAAAGgAAAAAADgCggAICCAAABACIACDSCAAAAAAAAAAICAAAAEAIBAAAIQACEAAFAAAAoYAAAAAJAAAAAAAAAAAAAAAAAAAAAAAAAAAAAA==

> <PUBCHEM_IUPAC_OPENEYE_NAME>
2,2-bis(hexa-2,4-dienoyloxymethyl)butyl hexa-2,4-dienoate

> <PUBCHEM_IUPAC_CAS_NAME>
hexa-2,4-dienoic acid 2,2-bis(1-oxohexa-2,4-dienoxymethyl)butyl ester

> <PUBCHEM_IUPAC_NAME_MARKUP>
2,2-bis(hexa-2,4-dienoyloxymethyl)butyl hexa-2,4-dienoate

> <PUBCHEM_IUPAC_NAME>
2,2-bis(hexa-2,4-dienoyloxymethyl)butyl hexa-2,4-dienoate

> <PUBCHEM_IUPAC_SYSTEMATIC_NAME>
2,2-bis(hexa-2,4-dienoyloxymethyl)butyl hexa-2,4-dienoate

> <PUBCHEM_IUPAC_TRADITIONAL_NAME>
hexa-2,4-dienoic acid 2,2-bis(hexa-2,4-dienoyloxymethyl)butyl ester

> <PUBCHEM_IUPAC_INCHI>
InChI=1S/C24H32O6/c1-5-9-12-15-21(25)28-18-24(8-4,19-29-22(26)16-13-10-6-2)20-30-23(27)17-14-11-7-3/h5-7,9-17H,8,18-20H2,1-4H3

> <PUBCHEM_IUPAC_INCHIKEY>
PCHCYDHTWIHPGA-UHFFFAOYSA-N

> <PUBCHEM_XLOGP3_AA>
5.3

> <PUBCHEM_EXACT_MASS>
416.21988874

> <PUBCHEM_MOLECULAR_FORMULA>
C24H32O6

> <PUBCHEM_MOLECULAR_WEIGHT>
416.5

> <PUBCHEM_SMILES>
CCC(COC(=O)C=CC=CC)(COC(=O)C=CC=CC)COC(=O)C=CC=CC

> <PUBCHEM_OPENEYE_CAN_SMILES>
CCC(COC(=O)C=CC=CC)(COC(=O)C=CC=CC)COC(=O)C=CC=CC

> <PUBCHEM_OPENEYE_ISO_SMILES>
CCC(COC(=O)C=CC=CC)(COC(=O)C=CC=CC)COC(=O)C=CC=CC

> <PUBCHEM_CACTVS_TPSA>
78.9

> <PUBCHEM_MONOISOTOPIC_WEIGHT>
416.21988874

> <PUBCHEM_TOTAL_CHARGE>
0

> <PUBCHEM_HEAVY_ATOM_COUNT>
30

> <PUBCHEM_ATOM_DEF_STEREO_COUNT>
0

> <PUBCHEM_ATOM_UDEF_STEREO_COUNT>
0

> <PUBCHEM_BOND_DEF_STEREO_COUNT>
0

> <PUBCHEM_BOND_UDEF_STEREO_COUNT>
6

> <PUBCHEM_ISOTOPIC_ATOM_COUNT>
0

> <PUBCHEM_COMPONENT_COUNT>
1

> <PUBCHEM_CACTVS_TAUTO_COUNT>
-1

> <PUBCHEM_COORDINATE_TYPE>
1
5
255

> <PUBCHEM_BONDANNOTATIONS>
16  19  1
17  20  1
18  21  1
22  25  1
23  26  1
24  27  1

$$$$
