91601
  -OEChem-04042506022D

109111  0     0  0  0  0  0  0999 V2000
    6.3301   -0.8170    0.0000 P   0  0  0  0  0  0  0  0  0  0  0  0
    5.4641   -0.3170    0.0000 O   0  0  0  0  0  0  0  0  0  0  0  0
    7.1962   -0.3170    0.0000 O   0  0  0  0  0  0  0  0  0  0  0  0
    6.3301   -1.8170    0.0000 O   0  0  0  0  0  0  0  0  0  0  0  0
    3.7320    0.6830    0.0000 C   0  0  0  0  0  0  0  0  0  0  0  0
    8.9282    0.6830    0.0000 C   0  0  0  0  0  0  0  0  0  0  0  0
    6.3301   -3.8170    0.0000 C   0  0  0  0  0  0  0  0  0  0  0  0
    5.4641    3.6830    0.0000 C   0  0  0  0  0  0  0  0  0  0  0  0
   10.6603   -2.3170    0.0000 C   0  0  0  0  0  0  0  0  0  0  0  0
    2.8660   -3.8170    0.0000 C   0  0  0  0  0  0  0  0  0  0  0  0
    4.5981    1.1830    0.0000 C   0  0  0  0  0  0  0  0  0  0  0  0
    8.9282   -0.3170    0.0000 C   0  0  0  0  0  0  0  0  0  0  0  0
    5.4641   -3.3170    0.0000 C   0  0  0  0  0  0  0  0  0  0  0  0
    5.4641    2.6830    0.0000 C   0  0  0  0  0  0  0  0  0  0  0  0
    9.7942   -1.8170    0.0000 C   0  0  0  0  0  0  0  0  0  0  0  0
    3.7320   -3.3170    0.0000 C   0  0  0  0  0  0  0  0  0  0  0  0
    4.5981    2.1830    0.0000 C   0  0  0  0  0  0  0  0  0  0  0  0
    9.7942   -0.8170    0.0000 C   0  0  0  0  0  0  0  0  0  0  0  0
    4.5981   -3.8170    0.0000 C   0  0  0  0  0  0  0  0  0  0  0  0
    5.4641    0.6830    0.0000 C   0  0  0  0  0  0  0  0  0  0  0  0
    8.0622   -0.8170    0.0000 C   0  0  0  0  0  0  0  0  0  0  0  0
    5.4641   -2.3170    0.0000 C   0  0  0  0  0  0  0  0  0  0  0  0
    2.8660    0.1830    0.0000 C   0  0  0  0  0  0  0  0  0  0  0  0
    3.2320    1.5490    0.0000 C   0  0  0  0  0  0  0  0  0  0  0  0
    4.2320   -0.1830    0.0000 C   0  0  0  0  0  0  0  0  0  0  0  0
    8.9282    1.6830    0.0000 C   0  0  0  0  0  0  0  0  0  0  0  0
    9.9282    0.6830    0.0000 C   0  0  0  0  0  0  0  0  0  0  0  0
    7.9282    0.6830    0.0000 C   0  0  0  0  0  0  0  0  0  0  0  0
    7.1962   -4.3170    0.0000 C   0  0  0  0  0  0  0  0  0  0  0  0
    5.8301   -4.6830    0.0000 C   0  0  0  0  0  0  0  0  0  0  0  0
    6.8301   -2.9510    0.0000 C   0  0  0  0  0  0  0  0  0  0  0  0
    5.4641    4.6830    0.0000 C   0  0  0  0  0  0  0  0  0  0  0  0
    4.4641    3.6830    0.0000 C   0  0  0  0  0  0  0  0  0  0  0  0
    6.4641    3.6830    0.0000 C   0  0  0  0  0  0  0  0  0  0  0  0
   11.5263   -2.8170    0.0000 C   0  0  0  0  0  0  0  0  0  0  0  0
   10.1603   -3.1830    0.0000 C   0  0  0  0  0  0  0  0  0  0  0  0
   11.1603   -1.4510    0.0000 C   0  0  0  0  0  0  0  0  0  0  0  0
    2.0000   -4.3170    0.0000 C   0  0  0  0  0  0  0  0  0  0  0  0
    3.3660   -4.6830    0.0000 C   0  0  0  0  0  0  0  0  0  0  0  0
    2.3660   -2.9510    0.0000 C   0  0  0  0  0  0  0  0  0  0  0  0
    6.3301    2.1830    0.0000 C   0  0  0  0  0  0  0  0  0  0  0  0
    8.9282   -2.3170    0.0000 C   0  0  0  0  0  0  0  0  0  0  0  0
    3.7320   -2.3170    0.0000 C   0  0  0  0  0  0  0  0  0  0  0  0
    6.3301    1.1830    0.0000 C   0  0  0  0  0  0  0  0  0  0  0  0
    8.0622   -1.8170    0.0000 C   0  0  0  0  0  0  0  0  0  0  0  0
    4.5981   -1.8170    0.0000 C   0  0  0  0  0  0  0  0  0  0  0  0
    4.0611    2.4930    0.0000 H   0  0  0  0  0  0  0  0  0  0  0  0
   10.3312   -0.5070    0.0000 H   0  0  0  0  0  0  0  0  0  0  0  0
    4.5981   -4.4370    0.0000 H   0  0  0  0  0  0  0  0  0  0  0  0
    2.5560    0.7199    0.0000 H   0  0  0  0  0  0  0  0  0  0  0  0
    2.3291   -0.1270    0.0000 H   0  0  0  0  0  0  0  0  0  0  0  0
    3.1760   -0.3539    0.0000 H   0  0  0  0  0  0  0  0  0  0  0  0
    3.7690    1.8590    0.0000 H   0  0  0  0  0  0  0  0  0  0  0  0
    2.9220    2.0860    0.0000 H   0  0  0  0  0  0  0  0  0  0  0  0
    2.6951    1.2390    0.0000 H   0  0  0  0  0  0  0  0  0  0  0  0
    3.6951   -0.4930    0.0000 H   0  0  0  0  0  0  0  0  0  0  0  0
    4.5420   -0.7199    0.0000 H   0  0  0  0  0  0  0  0  0  0  0  0
    4.7690    0.1270    0.0000 H   0  0  0  0  0  0  0  0  0  0  0  0
    9.5482    1.6830    0.0000 H   0  0  0  0  0  0  0  0  0  0  0  0
    8.9282    2.3030    0.0000 H   0  0  0  0  0  0  0  0  0  0  0  0
    8.3082    1.6830    0.0000 H   0  0  0  0  0  0  0  0  0  0  0  0
    9.9282    0.0630    0.0000 H   0  0  0  0  0  0  0  0  0  0  0  0
   10.5482    0.6830    0.0000 H   0  0  0  0  0  0  0  0  0  0  0  0
    9.9282    1.3030    0.0000 H   0  0  0  0  0  0  0  0  0  0  0  0
    7.9282    1.3030    0.0000 H   0  0  0  0  0  0  0  0  0  0  0  0
    7.3082    0.6830    0.0000 H   0  0  0  0  0  0  0  0  0  0  0  0
    7.9282    0.0630    0.0000 H   0  0  0  0  0  0  0  0  0  0  0  0
    6.8862   -4.8539    0.0000 H   0  0  0  0  0  0  0  0  0  0  0  0
    7.7331   -4.6270    0.0000 H   0  0  0  0  0  0  0  0  0  0  0  0
    7.5062   -3.7800    0.0000 H   0  0  0  0  0  0  0  0  0  0  0  0
    5.2932   -4.3730    0.0000 H   0  0  0  0  0  0  0  0  0  0  0  0
    5.5201   -5.2200    0.0000 H   0  0  0  0  0  0  0  0  0  0  0  0
    6.3671   -4.9930    0.0000 H   0  0  0  0  0  0  0  0  0  0  0  0
    7.3671   -3.2610    0.0000 H   0  0  0  0  0  0  0  0  0  0  0  0
    7.1401   -2.4140    0.0000 H   0  0  0  0  0  0  0  0  0  0  0  0
    6.2932   -2.6410    0.0000 H   0  0  0  0  0  0  0  0  0  0  0  0
    6.0841    4.6830    0.0000 H   0  0  0  0  0  0  0  0  0  0  0  0
    5.4641    5.3030    0.0000 H   0  0  0  0  0  0  0  0  0  0  0  0
    4.8441    4.6830    0.0000 H   0  0  0  0  0  0  0  0  0  0  0  0
    4.4641    4.3030    0.0000 H   0  0  0  0  0  0  0  0  0  0  0  0
    3.8441    3.6830    0.0000 H   0  0  0  0  0  0  0  0  0  0  0  0
    4.4641    3.0630    0.0000 H   0  0  0  0  0  0  0  0  0  0  0  0
    6.4641    3.0630    0.0000 H   0  0  0  0  0  0  0  0  0  0  0  0
    7.0841    3.6830    0.0000 H   0  0  0  0  0  0  0  0  0  0  0  0
    6.4641    4.3030    0.0000 H   0  0  0  0  0  0  0  0  0  0  0  0
   11.2163   -3.3539    0.0000 H   0  0  0  0  0  0  0  0  0  0  0  0
   12.0632   -3.1270    0.0000 H   0  0  0  0  0  0  0  0  0  0  0  0
   11.8363   -2.2800    0.0000 H   0  0  0  0  0  0  0  0  0  0  0  0
    9.6233   -2.8730    0.0000 H   0  0  0  0  0  0  0  0  0  0  0  0
    9.8503   -3.7200    0.0000 H   0  0  0  0  0  0  0  0  0  0  0  0
   10.6972   -3.4930    0.0000 H   0  0  0  0  0  0  0  0  0  0  0  0
   11.6972   -1.7610    0.0000 H   0  0  0  0  0  0  0  0  0  0  0  0
   11.4703   -0.9140    0.0000 H   0  0  0  0  0  0  0  0  0  0  0  0
   10.6233   -1.1410    0.0000 H   0  0  0  0  0  0  0  0  0  0  0  0
    1.6900   -3.7800    0.0000 H   0  0  0  0  0  0  0  0  0  0  0  0
    1.4631   -4.6270    0.0000 H   0  0  0  0  0  0  0  0  0  0  0  0
    2.3100   -4.8539    0.0000 H   0  0  0  0  0  0  0  0  0  0  0  0
    2.8291   -4.9930    0.0000 H   0  0  0  0  0  0  0  0  0  0  0  0
    3.6760   -5.2200    0.0000 H   0  0  0  0  0  0  0  0  0  0  0  0
    3.9030   -4.3730    0.0000 H   0  0  0  0  0  0  0  0  0  0  0  0
    2.9030   -2.6410    0.0000 H   0  0  0  0  0  0  0  0  0  0  0  0
    2.0560   -2.4140    0.0000 H   0  0  0  0  0  0  0  0  0  0  0  0
    1.8291   -3.2610    0.0000 H   0  0  0  0  0  0  0  0  0  0  0  0
    6.8671    2.4930    0.0000 H   0  0  0  0  0  0  0  0  0  0  0  0
    8.9282   -2.9370    0.0000 H   0  0  0  0  0  0  0  0  0  0  0  0
    3.1951   -2.0070    0.0000 H   0  0  0  0  0  0  0  0  0  0  0  0
    6.8671    0.8730    0.0000 H   0  0  0  0  0  0  0  0  0  0  0  0
    7.5252   -2.1270    0.0000 H   0  0  0  0  0  0  0  0  0  0  0  0
    4.5981   -1.1970    0.0000 H   0  0  0  0  0  0  0  0  0  0  0  0
  1  2  1  0  0  0  0
  1  3  1  0  0  0  0
  1  4  1  0  0  0  0
  2 20  1  0  0  0  0
  3 21  1  0  0  0  0
  4 22  1  0  0  0  0
  5 11  1  0  0  0  0
  5 23  1  0  0  0  0
  5 24  1  0  0  0  0
  5 25  1  0  0  0  0
  6 12  1  0  0  0  0
  6 26  1  0  0  0  0
  6 27  1  0  0  0  0
  6 28  1  0  0  0  0
  7 13  1  0  0  0  0
  7 29  1  0  0  0  0
  7 30  1  0  0  0  0
  7 31  1  0  0  0  0
  8 14  1  0  0  0  0
  8 32  1  0  0  0  0
  8 33  1  0  0  0  0
  8 34  1  0  0  0  0
  9 15  1  0  0  0  0
  9 35  1  0  0  0  0
  9 36  1  0  0  0  0
  9 37  1  0  0  0  0
 10 16  1  0  0  0  0
 10 38  1  0  0  0  0
 10 39  1  0  0  0  0
 10 40  1  0  0  0  0
 11 17  1  0  0  0  0
 11 20  2  0  0  0  0
 12 18  1  0  0  0  0
 12 21  2  0  0  0  0
 13 19  1  0  0  0  0
 13 22  2  0  0  0  0
 14 17  2  0  0  0  0
 14 41  1  0  0  0  0
 15 18  2  0  0  0  0
 15 42  1  0  0  0  0
 16 19  2  0  0  0  0
 16 43  1  0  0  0  0
 17 47  1  0  0  0  0
 18 48  1  0  0  0  0
 19 49  1  0  0  0  0
 20 44  1  0  0  0  0
 21 45  1  0  0  0  0
 22 46  1  0  0  0  0
 23 50  1  0  0  0  0
 23 51  1  0  0  0  0
 23 52  1  0  0  0  0
 24 53  1  0  0  0  0
 24 54  1  0  0  0  0
 24 55  1  0  0  0  0
 25 56  1  0  0  0  0
 25 57  1  0  0  0  0
 25 58  1  0  0  0  0
 26 59  1  0  0  0  0
 26 60  1  0  0  0  0
 26 61  1  0  0  0  0
 27 62  1  0  0  0  0
 27 63  1  0  0  0  0
 27 64  1  0  0  0  0
 28 65  1  0  0  0  0
 28 66  1  0  0  0  0
 28 67  1  0  0  0  0
 29 68  1  0  0  0  0
 29 69  1  0  0  0  0
 29 70  1  0  0  0  0
 30 71  1  0  0  0  0
 30 72  1  0  0  0  0
 30 73  1  0  0  0  0
 31 74  1  0  0  0  0
 31 75  1  0  0  0  0
 31 76  1  0  0  0  0
 32 77  1  0  0  0  0
 32 78  1  0  0  0  0
 32 79  1  0  0  0  0
 33 80  1  0  0  0  0
 33 81  1  0  0  0  0
 33 82  1  0  0  0  0
 34 83  1  0  0  0  0
 34 84  1  0  0  0  0
 34 85  1  0  0  0  0
 35 86  1  0  0  0  0
 35 87  1  0  0  0  0
 35 88  1  0  0  0  0
 36 89  1  0  0  0  0
 36 90  1  0  0  0  0
 36 91  1  0  0  0  0
 37 92  1  0  0  0  0
 37 93  1  0  0  0  0
 37 94  1  0  0  0  0
 38 95  1  0  0  0  0
 38 96  1  0  0  0  0
 38 97  1  0  0  0  0
 39 98  1  0  0  0  0
 39 99  1  0  0  0  0
 39100  1  0  0  0  0
 40101  1  0  0  0  0
 40102  1  0  0  0  0
 40103  1  0  0  0  0
 41 44  2  0  0  0  0
 41104  1  0  0  0  0
 42 45  2  0  0  0  0
 42105  1  0  0  0  0
 43 46  2  0  0  0  0
 43106  1  0  0  0  0
 44107  1  0  0  0  0
 45108  1  0  0  0  0
 46109  1  0  0  0  0
M  END
> <PUBCHEM_COMPOUND_CID>
91601

> <PUBCHEM_COMPOUND_CANONICALIZED>
1

> <PUBCHEM_CACTVS_COMPLEXITY>
823

> <PUBCHEM_CACTVS_HBOND_ACCEPTOR>
3

> <PUBCHEM_CACTVS_HBOND_DONOR>
0

> <PUBCHEM_CACTVS_ROTATABLE_BOND>
12

> <PUBCHEM_CACTVS_SUBSKEYS>
AAADcfB8MAIAAAAAAAAAAAAAAAAAAAAAAAAwYMAAAAAAAAABUAAAGgAAACAADgSAmAAyBoAAARCAAiBCAAACAAAgIAAIiAAGCIgIJiKAERKAMAAkwBEIiAeAwPAPoAACAAAIAABAAAQAABAAAAAAAAAAAA==

> <PUBCHEM_IUPAC_OPENEYE_NAME>
tris(2,4-ditert-butylphenyl) phosphite

> <PUBCHEM_IUPAC_CAS_NAME>
phosphorous acid tris(2,4-ditert-butylphenyl) ester

> <PUBCHEM_IUPAC_NAME_MARKUP>
tris(2,4-di<I>tert</I>-butylphenyl) phosphite

> <PUBCHEM_IUPAC_NAME>
tris(2,4-ditert-butylphenyl) phosphite

> <PUBCHEM_IUPAC_SYSTEMATIC_NAME>
tris(2,4-ditert-butylphenyl) phosphite

> <PUBCHEM_IUPAC_TRADITIONAL_NAME>
phosphorous acid tris(2,4-ditert-butylphenyl) ester

> <PUBCHEM_IUPAC_INCHI>
InChI=1S/C42H63O3P/c1-37(2,3)28-19-22-34(31(25-28)40(10,11)12)43-46(44-35-23-20-29(38(4,5)6)26-32(35)41(13,14)15)45-36-24-21-30(39(7,8)9)27-33(36)42(16,17)18/h19-27H,1-18H3

> <PUBCHEM_IUPAC_INCHIKEY>
JKIJEFPNVSHHEI-UHFFFAOYSA-N

> <PUBCHEM_XLOGP3_AA>
15.5

> <PUBCHEM_EXACT_MASS>
646.45148287

> <PUBCHEM_MOLECULAR_FORMULA>
C42H63O3P

> <PUBCHEM_MOLECULAR_WEIGHT>
646.9

> <PUBCHEM_SMILES>
CC(C)(C)C1=CC(=C(C=C1)OP(OC2=C(C=C(C=C2)C(C)(C)C)C(C)(C)C)OC3=C(C=C(C=C3)C(C)(C)C)C(C)(C)C)C(C)(C)C

> <PUBCHEM_OPENEYE_CAN_SMILES>
CC(C)(C)C1=CC(=C(C=C1)OP(OC2=C(C=C(C=C2)C(C)(C)C)C(C)(C)C)OC3=C(C=C(C=C3)C(C)(C)C)C(C)(C)C)C(C)(C)C

> <PUBCHEM_OPENEYE_ISO_SMILES>
CC(C)(C)C1=CC(=C(C=C1)OP(OC2=C(C=C(C=C2)C(C)(C)C)C(C)(C)C)OC3=C(C=C(C=C3)C(C)(C)C)C(C)(C)C)C(C)(C)C

> <PUBCHEM_CACTVS_TPSA>
27.7

> <PUBCHEM_MONOISOTOPIC_WEIGHT>
646.45148287

> <PUBCHEM_TOTAL_CHARGE>
0

> <PUBCHEM_HEAVY_ATOM_COUNT>
46

> <PUBCHEM_ATOM_DEF_STEREO_COUNT>
0

> <PUBCHEM_ATOM_UDEF_STEREO_COUNT>
0

> <PUBCHEM_BOND_DEF_STEREO_COUNT>
0

> <PUBCHEM_BOND_UDEF_STEREO_COUNT>
0

> <PUBCHEM_ISOTOPIC_ATOM_COUNT>
0

> <PUBCHEM_COMPONENT_COUNT>
1

> <PUBCHEM_CACTVS_TAUTO_COUNT>
-1

> <PUBCHEM_COORDINATE_TYPE>
1
5
255

> <PUBCHEM_BONDANNOTATIONS>
11  17  8
11  20  8
12  18  8
12  21  8
13  19  8
13  22  8
14  17  8
14  41  8
15  18  8
15  42  8
16  19  8
16  43  8
20  44  8
21  45  8
22  46  8
41  44  8
42  45  8
43  46  8

$$$$
