92041135
  -OEChem-04042513062D

 88 87  0     1  0  0  0  0  0999 V2000
   23.3215   -1.0950    0.0000 O   0  0  0  0  0  0  0  0  0  0  0  0
   12.9292   -0.0950    0.0000 O   0  0  0  0  0  0  0  0  0  0  0  0
    9.4651   -0.0950    0.0000 O   0  0  0  0  0  0  0  0  0  0  0  0
   13.7953    1.4050    0.0000 O   0  0  0  0  0  0  0  0  0  0  0  0
    6.0010   -0.0950    0.0000 O   0  0  0  0  0  0  0  0  0  0  0  0
   11.1972   -1.0950    0.0000 O   0  0  0  0  0  0  0  0  0  0  0  0
    7.7331   -1.0950    0.0000 O   0  0  0  0  0  0  0  0  0  0  0  0
    4.2690   -1.0950    0.0000 O   0  0  0  0  0  0  0  0  0  0  0  0
    2.5369   -0.0950    0.0000 O   0  0  0  0  0  0  0  0  0  0  0  0
   24.1876    0.4050    0.0000 C   0  0  0  0  0  0  0  0  0  0  0  0
   25.0536   -0.0950    0.0000 C   0  0  0  0  0  0  0  0  0  0  0  0
   23.3215   -0.0950    0.0000 C   0  0  3  0  0  0  0  0  0  0  0  0
   25.9196    0.4050    0.0000 C   0  0  0  0  0  0  0  0  0  0  0  0
   18.1254   -0.0950    0.0000 C   0  0  0  0  0  0  0  0  0  0  0  0
   17.2594    0.4050    0.0000 C   0  0  0  0  0  0  0  0  0  0  0  0
   18.9914    0.4050    0.0000 C   0  0  0  0  0  0  0  0  0  0  0  0
   16.3933   -0.0950    0.0000 C   0  0  0  0  0  0  0  0  0  0  0  0
   22.4555    0.4050    0.0000 C   0  0  0  0  0  0  0  0  0  0  0  0
   26.7856   -0.0950    0.0000 C   0  0  0  0  0  0  0  0  0  0  0  0
   19.8574   -0.0950    0.0000 C   0  0  0  0  0  0  0  0  0  0  0  0
   15.5273    0.4050    0.0000 C   0  0  0  0  0  0  0  0  0  0  0  0
   27.6517    0.4050    0.0000 C   0  0  0  0  0  0  0  0  0  0  0  0
   21.5895   -0.0950    0.0000 C   0  0  0  0  0  0  0  0  0  0  0  0
   20.7235    0.4050    0.0000 C   0  0  0  0  0  0  0  0  0  0  0  0
   14.6613   -0.0950    0.0000 C   0  0  0  0  0  0  0  0  0  0  0  0
   28.5177   -0.0950    0.0000 C   0  0  0  0  0  0  0  0  0  0  0  0
   13.7953    0.4050    0.0000 C   0  0  0  0  0  0  0  0  0  0  0  0
   11.1972   -0.0950    0.0000 C   0  0  3  0  0  0  0  0  0  0  0  0
   12.0632    0.4050    0.0000 C   0  0  0  0  0  0  0  0  0  0  0  0
   10.3312    0.4050    0.0000 C   0  0  0  0  0  0  0  0  0  0  0  0
    7.7331   -0.0950    0.0000 C   0  0  3  0  0  0  0  0  0  0  0  0
    8.5991    0.4050    0.0000 C   0  0  0  0  0  0  0  0  0  0  0  0
    6.8671    0.4050    0.0000 C   0  0  0  0  0  0  0  0  0  0  0  0
    5.1350    0.4050    0.0000 C   0  0  0  0  0  0  0  0  0  0  0  0
    4.2690   -0.0950    0.0000 C   0  0  3  0  0  0  0  0  0  0  0  0
    3.4030    0.4050    0.0000 C   0  0  0  0  0  0  0  0  0  0  0  0
   24.5861    0.8799    0.0000 H   0  0  0  0  0  0  0  0  0  0  0  0
   23.7890    0.8799    0.0000 H   0  0  0  0  0  0  0  0  0  0  0  0
   24.6551   -0.5699    0.0000 H   0  0  0  0  0  0  0  0  0  0  0  0
   25.4521   -0.5699    0.0000 H   0  0  0  0  0  0  0  0  0  0  0  0
   22.7846   -0.4050    0.0000 H   0  0  0  0  0  0  0  0  0  0  0  0
   26.3182    0.8799    0.0000 H   0  0  0  0  0  0  0  0  0  0  0  0
   25.5211    0.8799    0.0000 H   0  0  0  0  0  0  0  0  0  0  0  0
   17.7269   -0.5699    0.0000 H   0  0  0  0  0  0  0  0  0  0  0  0
   18.5239   -0.5699    0.0000 H   0  0  0  0  0  0  0  0  0  0  0  0
   17.6579    0.8799    0.0000 H   0  0  0  0  0  0  0  0  0  0  0  0
   16.8608    0.8799    0.0000 H   0  0  0  0  0  0  0  0  0  0  0  0
   19.3899    0.8799    0.0000 H   0  0  0  0  0  0  0  0  0  0  0  0
   18.5929    0.8799    0.0000 H   0  0  0  0  0  0  0  0  0  0  0  0
   15.9948   -0.5699    0.0000 H   0  0  0  0  0  0  0  0  0  0  0  0
   16.7919   -0.5699    0.0000 H   0  0  0  0  0  0  0  0  0  0  0  0
   22.8540    0.8799    0.0000 H   0  0  0  0  0  0  0  0  0  0  0  0
   22.0570    0.8799    0.0000 H   0  0  0  0  0  0  0  0  0  0  0  0
   26.3871   -0.5699    0.0000 H   0  0  0  0  0  0  0  0  0  0  0  0
   27.1842   -0.5699    0.0000 H   0  0  0  0  0  0  0  0  0  0  0  0
   19.4589   -0.5699    0.0000 H   0  0  0  0  0  0  0  0  0  0  0  0
   20.2560   -0.5699    0.0000 H   0  0  0  0  0  0  0  0  0  0  0  0
   15.9258    0.8799    0.0000 H   0  0  0  0  0  0  0  0  0  0  0  0
   15.1288    0.8799    0.0000 H   0  0  0  0  0  0  0  0  0  0  0  0
   28.0502    0.8799    0.0000 H   0  0  0  0  0  0  0  0  0  0  0  0
   27.2531    0.8799    0.0000 H   0  0  0  0  0  0  0  0  0  0  0  0
   21.5895   -0.7150    0.0000 H   0  0  0  0  0  0  0  0  0  0  0  0
   20.7235    1.0250    0.0000 H   0  0  0  0  0  0  0  0  0  0  0  0
   14.2628   -0.5699    0.0000 H   0  0  0  0  0  0  0  0  0  0  0  0
   15.0598   -0.5699    0.0000 H   0  0  0  0  0  0  0  0  0  0  0  0
   23.8585   -1.4050    0.0000 H   0  0  0  0  0  0  0  0  0  0  0  0
   28.2077   -0.6319    0.0000 H   0  0  0  0  0  0  0  0  0  0  0  0
   29.0546   -0.4050    0.0000 H   0  0  0  0  0  0  0  0  0  0  0  0
   28.8277    0.4419    0.0000 H   0  0  0  0  0  0  0  0  0  0  0  0
   10.6603   -0.4050    0.0000 H   0  0  0  0  0  0  0  0  0  0  0  0
   12.4617    0.8799    0.0000 H   0  0  0  0  0  0  0  0  0  0  0  0
   11.6647    0.8799    0.0000 H   0  0  0  0  0  0  0  0  0  0  0  0
   10.7297    0.8799    0.0000 H   0  0  0  0  0  0  0  0  0  0  0  0
    9.9326    0.8799    0.0000 H   0  0  0  0  0  0  0  0  0  0  0  0
    8.2700   -0.4050    0.0000 H   0  0  0  0  0  0  0  0  0  0  0  0
    8.9976    0.8799    0.0000 H   0  0  0  0  0  0  0  0  0  0  0  0
    8.2006    0.8799    0.0000 H   0  0  0  0  0  0  0  0  0  0  0  0
    7.2656    0.8799    0.0000 H   0  0  0  0  0  0  0  0  0  0  0  0
    6.4685    0.8799    0.0000 H   0  0  0  0  0  0  0  0  0  0  0  0
    5.5335    0.8799    0.0000 H   0  0  0  0  0  0  0  0  0  0  0  0
    4.7365    0.8799    0.0000 H   0  0  0  0  0  0  0  0  0  0  0  0
    4.8059   -0.4050    0.0000 H   0  0  0  0  0  0  0  0  0  0  0  0
   10.6603   -1.4050    0.0000 H   0  0  0  0  0  0  0  0  0  0  0  0
    7.1962   -1.4050    0.0000 H   0  0  0  0  0  0  0  0  0  0  0  0
    3.8015    0.8799    0.0000 H   0  0  0  0  0  0  0  0  0  0  0  0
    3.0044    0.8799    0.0000 H   0  0  0  0  0  0  0  0  0  0  0  0
    3.7320   -1.4050    0.0000 H   0  0  0  0  0  0  0  0  0  0  0  0
    2.0000    0.2150    0.0000 H   0  0  0  0  0  0  0  0  0  0  0  0
  1 12  1  0  0  0  0
  1 66  1  0  0  0  0
  2 27  1  0  0  0  0
  2 29  1  0  0  0  0
  3 30  1  0  0  0  0
  3 32  1  0  0  0  0
  4 27  2  0  0  0  0
  5 33  1  0  0  0  0
  5 34  1  0  0  0  0
  6 28  1  0  0  0  0
  6 83  1  0  0  0  0
  7 31  1  0  0  0  0
  7 84  1  0  0  0  0
  8 35  1  0  0  0  0
  8 87  1  0  0  0  0
  9 36  1  0  0  0  0
  9 88  1  0  0  0  0
 10 11  1  0  0  0  0
 10 12  1  0  0  0  0
 10 37  1  0  0  0  0
 10 38  1  0  0  0  0
 11 13  1  0  0  0  0
 11 39  1  0  0  0  0
 11 40  1  0  0  0  0
 12 18  1  0  0  0  0
 12 41  1  0  0  0  0
 13 19  1  0  0  0  0
 13 42  1  0  0  0  0
 13 43  1  0  0  0  0
 14 15  1  0  0  0  0
 14 16  1  0  0  0  0
 14 44  1  0  0  0  0
 14 45  1  0  0  0  0
 15 17  1  0  0  0  0
 15 46  1  0  0  0  0
 15 47  1  0  0  0  0
 16 20  1  0  0  0  0
 16 48  1  0  0  0  0
 16 49  1  0  0  0  0
 17 21  1  0  0  0  0
 17 50  1  0  0  0  0
 17 51  1  0  0  0  0
 18 23  1  0  0  0  0
 18 52  1  0  0  0  0
 18 53  1  0  0  0  0
 19 22  1  0  0  0  0
 19 54  1  0  0  0  0
 19 55  1  0  0  0  0
 20 24  1  0  0  0  0
 20 56  1  0  0  0  0
 20 57  1  0  0  0  0
 21 25  1  0  0  0  0
 21 58  1  0  0  0  0
 21 59  1  0  0  0  0
 22 26  1  0  0  0  0
 22 60  1  0  0  0  0
 22 61  1  0  0  0  0
 23 24  2  3  0  0  0
 23 62  1  0  0  0  0
 24 63  1  0  0  0  0
 25 27  1  0  0  0  0
 25 64  1  0  0  0  0
 25 65  1  0  0  0  0
 26 67  1  0  0  0  0
 26 68  1  0  0  0  0
 26 69  1  0  0  0  0
 28 29  1  0  0  0  0
 28 30  1  0  0  0  0
 28 70  1  0  0  0  0
 29 71  1  0  0  0  0
 29 72  1  0  0  0  0
 30 73  1  0  0  0  0
 30 74  1  0  0  0  0
 31 32  1  0  0  0  0
 31 33  1  0  0  0  0
 31 75  1  0  0  0  0
 32 76  1  0  0  0  0
 32 77  1  0  0  0  0
 33 78  1  0  0  0  0
 33 79  1  0  0  0  0
 34 35  1  0  0  0  0
 34 80  1  0  0  0  0
 34 81  1  0  0  0  0
 35 36  1  0  0  0  0
 35 82  1  0  0  0  0
 36 85  1  0  0  0  0
 36 86  1  0  0  0  0
M  END
> <PUBCHEM_COMPOUND_CID>
92041135

> <PUBCHEM_COMPOUND_CANONICALIZED>
1

> <PUBCHEM_CACTVS_COMPLEXITY>
515

> <PUBCHEM_CACTVS_HBOND_ACCEPTOR>
9

> <PUBCHEM_CACTVS_HBOND_DONOR>
5

> <PUBCHEM_CACTVS_ROTATABLE_BOND>
27

> <PUBCHEM_CACTVS_SUBSKEYS>
AAADcfB4PAAAAAAAAAAAAAAAAAAAAAAAAAAAAAAAAAAAAAAAAAAAGgAACAAACBSggAICCAAABgCIACDSCAAAAAAgAAAICAEAAAgBEBIAAQACQAAFwAALAAOIyKCAAAAAAAAAAAAAAAAAAAAAAAAAAAAAAA==

> <PUBCHEM_IUPAC_OPENEYE_NAME>
[3-[3-(2,3-dihydroxypropoxy)-2-hydroxy-propoxy]-2-hydroxy-propyl] 12-hydroxyoctadec-9-enoate

> <PUBCHEM_IUPAC_CAS_NAME>
12-hydroxy-9-octadecenoic acid [3-[3-(2,3-dihydroxypropoxy)-2-hydroxypropoxy]-2-hydroxypropyl] ester

> <PUBCHEM_IUPAC_NAME_MARKUP>
[3-[3-(2,3-dihydroxypropoxy)-2-hydroxypropoxy]-2-hydroxypropyl] 12-hydroxyoctadec-9-enoate

> <PUBCHEM_IUPAC_NAME>
[3-[3-(2,3-dihydroxypropoxy)-2-hydroxypropoxy]-2-hydroxypropyl] 12-hydroxyoctadec-9-enoate

> <PUBCHEM_IUPAC_SYSTEMATIC_NAME>
[3-[3-[2,3-bis(oxidanyl)propoxy]-2-oxidanyl-propoxy]-2-oxidanyl-propyl] 12-oxidanyloctadec-9-enoate

> <PUBCHEM_IUPAC_TRADITIONAL_NAME>
12-hydroxyoctadec-9-enoic acid [3-(3-glyceryloxy-2-hydroxy-propoxy)-2-hydroxy-propyl] ester

> <PUBCHEM_IUPAC_INCHI>
InChI=1S/C27H52O9/c1-2-3-4-11-14-23(29)15-12-9-7-5-6-8-10-13-16-27(33)36-22-26(32)21-35-20-25(31)19-34-18-24(30)17-28/h9,12,23-26,28-32H,2-8,10-11,13-22H2,1H3

> <PUBCHEM_IUPAC_INCHIKEY>
HUXYPHWJPJYMBC-UHFFFAOYSA-N

> <PUBCHEM_XLOGP3_AA>
3.2

> <PUBCHEM_EXACT_MASS>
520.36113323

> <PUBCHEM_MOLECULAR_FORMULA>
C27H52O9

> <PUBCHEM_MOLECULAR_WEIGHT>
520.7

> <PUBCHEM_SMILES>
CCCCCCC(CC=CCCCCCCCC(=O)OCC(COCC(COCC(CO)O)O)O)O

> <PUBCHEM_OPENEYE_CAN_SMILES>
CCCCCCC(CC=CCCCCCCCC(=O)OCC(COCC(COCC(CO)O)O)O)O

> <PUBCHEM_OPENEYE_ISO_SMILES>
CCCCCCC(CC=CCCCCCCCC(=O)OCC(COCC(COCC(CO)O)O)O)O

> <PUBCHEM_CACTVS_TPSA>
146

> <PUBCHEM_MONOISOTOPIC_WEIGHT>
520.36113323

> <PUBCHEM_TOTAL_CHARGE>
0

> <PUBCHEM_HEAVY_ATOM_COUNT>
36

> <PUBCHEM_ATOM_DEF_STEREO_COUNT>
0

> <PUBCHEM_ATOM_UDEF_STEREO_COUNT>
4

> <PUBCHEM_BOND_DEF_STEREO_COUNT>
0

> <PUBCHEM_BOND_UDEF_STEREO_COUNT>
1

> <PUBCHEM_ISOTOPIC_ATOM_COUNT>
0

> <PUBCHEM_COMPONENT_COUNT>
1

> <PUBCHEM_CACTVS_TAUTO_COUNT>
-1

> <PUBCHEM_COORDINATE_TYPE>
1
5
255

> <PUBCHEM_BONDANNOTATIONS>
12  1  3
23  24  1
28  6  3
31  7  3
35  8  3

$$$$
