92905
  -OEChem-04042505332D

 92 94  0     1  0  0  0  0  0999 V2000
    6.0010   -3.9050    0.0000 O   0  0  0  0  0  0  0  0  0  0  0  0
    2.5369    2.0950    0.0000 O   0  0  0  0  0  0  0  0  0  0  0  0
   10.3312    3.5950    0.0000 O   0  0  0  0  0  0  0  0  0  0  0  0
    6.0010    0.0950    0.0000 C   0  0  0  0  0  0  0  0  0  0  0  0
    6.8671    0.5950    0.0000 C   0  0  0  0  0  0  0  0  0  0  0  0
    6.8671    1.5950    0.0000 C   0  0  3  0  0  0  0  0  0  0  0  0
    6.0010   -0.9050    0.0000 C   0  0  0  0  0  0  0  0  0  0  0  0
    5.1350    0.5950    0.0000 C   0  0  0  0  0  0  0  0  0  0  0  0
    7.7331    2.0950    0.0000 C   0  0  0  0  0  0  0  0  0  0  0  0
    4.2690   -2.9050    0.0000 C   0  0  0  0  0  0  0  0  0  0  0  0
    4.2690    3.0950    0.0000 C   0  0  0  0  0  0  0  0  0  0  0  0
    5.1350   -2.4050    0.0000 C   0  0  0  0  0  0  0  0  0  0  0  0
    4.2690    2.0950    0.0000 C   0  0  0  0  0  0  0  0  0  0  0  0
    5.1350   -1.4050    0.0000 C   0  0  0  0  0  0  0  0  0  0  0  0
    5.1350    1.5950    0.0000 C   0  0  0  0  0  0  0  0  0  0  0  0
    6.0010    2.0950    0.0000 C   0  0  0  0  0  0  0  0  0  0  0  0
    6.8671   -1.4050    0.0000 C   0  0  0  0  0  0  0  0  0  0  0  0
    4.2690    0.0950    0.0000 C   0  0  0  0  0  0  0  0  0  0  0  0
   10.3312    1.5950    0.0000 C   0  0  0  0  0  0  0  0  0  0  0  0
    9.4651    2.0950    0.0000 C   0  0  0  0  0  0  0  0  0  0  0  0
    8.5991    1.5950    0.0000 C   0  0  0  0  0  0  0  0  0  0  0  0
    7.7331    3.0950    0.0000 C   0  0  0  0  0  0  0  0  0  0  0  0
    6.0010   -2.9050    0.0000 C   0  0  0  0  0  0  0  0  0  0  0  0
    3.4030    1.5950    0.0000 C   0  0  0  0  0  0  0  0  0  0  0  0
    6.8671   -2.4050    0.0000 C   0  0  0  0  0  0  0  0  0  0  0  0
    3.4030    0.5950    0.0000 C   0  0  0  0  0  0  0  0  0  0  0  0
    9.4651    3.0950    0.0000 C   0  0  0  0  0  0  0  0  0  0  0  0
    8.5991    3.5950    0.0000 C   0  0  0  0  0  0  0  0  0  0  0  0
    3.4030   -3.4050    0.0000 C   0  0  0  0  0  0  0  0  0  0  0  0
    4.7690   -3.7710    0.0000 C   0  0  0  0  0  0  0  0  0  0  0  0
    3.7690   -2.0390    0.0000 C   0  0  0  0  0  0  0  0  0  0  0  0
    4.2690    4.0950    0.0000 C   0  0  0  0  0  0  0  0  0  0  0  0
    3.2690    3.0950    0.0000 C   0  0  0  0  0  0  0  0  0  0  0  0
    5.2690    3.0950    0.0000 C   0  0  0  0  0  0  0  0  0  0  0  0
    7.7331   -0.9050    0.0000 C   0  0  0  0  0  0  0  0  0  0  0  0
    4.2690   -0.9050    0.0000 C   0  0  0  0  0  0  0  0  0  0  0  0
   11.1972    1.0950    0.0000 C   0  0  0  0  0  0  0  0  0  0  0  0
   10.8312    2.4610    0.0000 C   0  0  0  0  0  0  0  0  0  0  0  0
    9.8312    0.7290    0.0000 C   0  0  0  0  0  0  0  0  0  0  0  0
    6.8671    3.5950    0.0000 C   0  0  0  0  0  0  0  0  0  0  0  0
    6.5380   -0.2150    0.0000 H   0  0  0  0  0  0  0  0  0  0  0  0
    7.0791    0.0124    0.0000 H   0  0  0  0  0  0  0  0  0  0  0  0
    7.4776    0.7027    0.0000 H   0  0  0  0  0  0  0  0  0  0  0  0
    6.3301    1.2850    0.0000 H   0  0  0  0  0  0  0  0  0  0  0  0
    4.5981   -1.0950    0.0000 H   0  0  0  0  0  0  0  0  0  0  0  0
    5.6720    1.9050    0.0000 H   0  0  0  0  0  0  0  0  0  0  0  0
    6.3110    2.6319    0.0000 H   0  0  0  0  0  0  0  0  0  0  0  0
    5.4641    2.4050    0.0000 H   0  0  0  0  0  0  0  0  0  0  0  0
    5.6910    1.5581    0.0000 H   0  0  0  0  0  0  0  0  0  0  0  0
    8.5991    0.9750    0.0000 H   0  0  0  0  0  0  0  0  0  0  0  0
    7.4040   -2.7150    0.0000 H   0  0  0  0  0  0  0  0  0  0  0  0
    2.8660    0.2850    0.0000 H   0  0  0  0  0  0  0  0  0  0  0  0
    8.5991    4.2150    0.0000 H   0  0  0  0  0  0  0  0  0  0  0  0
    3.0930   -2.8681    0.0000 H   0  0  0  0  0  0  0  0  0  0  0  0
    2.8660   -3.7150    0.0000 H   0  0  0  0  0  0  0  0  0  0  0  0
    3.7130   -3.9419    0.0000 H   0  0  0  0  0  0  0  0  0  0  0  0
    4.2320   -4.0810    0.0000 H   0  0  0  0  0  0  0  0  0  0  0  0
    5.0790   -4.3080    0.0000 H   0  0  0  0  0  0  0  0  0  0  0  0
    5.3059   -3.4610    0.0000 H   0  0  0  0  0  0  0  0  0  0  0  0
    4.3059   -1.7290    0.0000 H   0  0  0  0  0  0  0  0  0  0  0  0
    3.4590   -1.5020    0.0000 H   0  0  0  0  0  0  0  0  0  0  0  0
    3.2320   -2.3490    0.0000 H   0  0  0  0  0  0  0  0  0  0  0  0
    4.8890    4.0950    0.0000 H   0  0  0  0  0  0  0  0  0  0  0  0
    4.2690    4.7150    0.0000 H   0  0  0  0  0  0  0  0  0  0  0  0
    3.6490    4.0950    0.0000 H   0  0  0  0  0  0  0  0  0  0  0  0
    3.2690    3.7150    0.0000 H   0  0  0  0  0  0  0  0  0  0  0  0
    2.6490    3.0950    0.0000 H   0  0  0  0  0  0  0  0  0  0  0  0
    3.2690    2.4750    0.0000 H   0  0  0  0  0  0  0  0  0  0  0  0
    5.2690    2.4750    0.0000 H   0  0  0  0  0  0  0  0  0  0  0  0
    5.8890    3.0950    0.0000 H   0  0  0  0  0  0  0  0  0  0  0  0
    5.2690    3.7150    0.0000 H   0  0  0  0  0  0  0  0  0  0  0  0
    8.0431   -1.4419    0.0000 H   0  0  0  0  0  0  0  0  0  0  0  0
    8.2700   -0.5950    0.0000 H   0  0  0  0  0  0  0  0  0  0  0  0
    7.4231   -0.3681    0.0000 H   0  0  0  0  0  0  0  0  0  0  0  0
    3.6490   -0.9050    0.0000 H   0  0  0  0  0  0  0  0  0  0  0  0
    4.2690   -1.5250    0.0000 H   0  0  0  0  0  0  0  0  0  0  0  0
    4.8890   -0.9050    0.0000 H   0  0  0  0  0  0  0  0  0  0  0  0
   10.8872    0.5581    0.0000 H   0  0  0  0  0  0  0  0  0  0  0  0
   11.7341    0.7850    0.0000 H   0  0  0  0  0  0  0  0  0  0  0  0
   11.5072    1.6319    0.0000 H   0  0  0  0  0  0  0  0  0  0  0  0
   11.3681    2.1510    0.0000 H   0  0  0  0  0  0  0  0  0  0  0  0
   11.1412    2.9980    0.0000 H   0  0  0  0  0  0  0  0  0  0  0  0
   10.2942    2.7710    0.0000 H   0  0  0  0  0  0  0  0  0  0  0  0
    9.2942    1.0390    0.0000 H   0  0  0  0  0  0  0  0  0  0  0  0
    9.5212    0.1920    0.0000 H   0  0  0  0  0  0  0  0  0  0  0  0
   10.3681    0.4190    0.0000 H   0  0  0  0  0  0  0  0  0  0  0  0
    7.1771    4.1319    0.0000 H   0  0  0  0  0  0  0  0  0  0  0  0
    6.3301    3.9050    0.0000 H   0  0  0  0  0  0  0  0  0  0  0  0
    6.5571    3.0581    0.0000 H   0  0  0  0  0  0  0  0  0  0  0  0
    6.5380   -4.2150    0.0000 H   0  0  0  0  0  0  0  0  0  0  0  0
    2.0000    1.7850    0.0000 H   0  0  0  0  0  0  0  0  0  0  0  0
   10.3312    4.2150    0.0000 H   0  0  0  0  0  0  0  0  0  0  0  0
  1 23  1  0  0  0  0
  1 90  1  0  0  0  0
  2 24  1  0  0  0  0
  2 91  1  0  0  0  0
  3 27  1  0  0  0  0
  3 92  1  0  0  0  0
  4  5  1  0  0  0  0
  4  7  1  0  0  0  0
  4  8  1  0  0  0  0
  4 41  1  0  0  0  0
  5  6  1  0  0  0  0
  5 42  1  0  0  0  0
  5 43  1  0  0  0  0
  6  9  1  0  0  0  0
  6 16  1  0  0  0  0
  6 44  1  0  0  0  0
  7 14  2  0  0  0  0
  7 17  1  0  0  0  0
  8 15  2  0  0  0  0
  8 18  1  0  0  0  0
  9 21  2  0  0  0  0
  9 22  1  0  0  0  0
 10 12  1  0  0  0  0
 10 29  1  0  0  0  0
 10 30  1  0  0  0  0
 10 31  1  0  0  0  0
 11 13  1  0  0  0  0
 11 32  1  0  0  0  0
 11 33  1  0  0  0  0
 11 34  1  0  0  0  0
 12 14  1  0  0  0  0
 12 23  2  0  0  0  0
 13 15  1  0  0  0  0
 13 24  2  0  0  0  0
 14 45  1  0  0  0  0
 15 46  1  0  0  0  0
 16 47  1  0  0  0  0
 16 48  1  0  0  0  0
 16 49  1  0  0  0  0
 17 25  2  0  0  0  0
 17 35  1  0  0  0  0
 18 26  2  0  0  0  0
 18 36  1  0  0  0  0
 19 20  1  0  0  0  0
 19 37  1  0  0  0  0
 19 38  1  0  0  0  0
 19 39  1  0  0  0  0
 20 21  1  0  0  0  0
 20 27  2  0  0  0  0
 21 50  1  0  0  0  0
 22 28  2  0  0  0  0
 22 40  1  0  0  0  0
 23 25  1  0  0  0  0
 24 26  1  0  0  0  0
 25 51  1  0  0  0  0
 26 52  1  0  0  0  0
 27 28  1  0  0  0  0
 28 53  1  0  0  0  0
 29 54  1  0  0  0  0
 29 55  1  0  0  0  0
 29 56  1  0  0  0  0
 30 57  1  0  0  0  0
 30 58  1  0  0  0  0
 30 59  1  0  0  0  0
 31 60  1  0  0  0  0
 31 61  1  0  0  0  0
 31 62  1  0  0  0  0
 32 63  1  0  0  0  0
 32 64  1  0  0  0  0
 32 65  1  0  0  0  0
 33 66  1  0  0  0  0
 33 67  1  0  0  0  0
 33 68  1  0  0  0  0
 34 69  1  0  0  0  0
 34 70  1  0  0  0  0
 34 71  1  0  0  0  0
 35 72  1  0  0  0  0
 35 73  1  0  0  0  0
 35 74  1  0  0  0  0
 36 75  1  0  0  0  0
 36 76  1  0  0  0  0
 36 77  1  0  0  0  0
 37 78  1  0  0  0  0
 37 79  1  0  0  0  0
 37 80  1  0  0  0  0
 38 81  1  0  0  0  0
 38 82  1  0  0  0  0
 38 83  1  0  0  0  0
 39 84  1  0  0  0  0
 39 85  1  0  0  0  0
 39 86  1  0  0  0  0
 40 87  1  0  0  0  0
 40 88  1  0  0  0  0
 40 89  1  0  0  0  0
M  END
> <PUBCHEM_COMPOUND_CID>
92905

> <PUBCHEM_COMPOUND_CANONICALIZED>
1

> <PUBCHEM_CACTVS_COMPLEXITY>
758

> <PUBCHEM_CACTVS_HBOND_ACCEPTOR>
3

> <PUBCHEM_CACTVS_HBOND_DONOR>
3

> <PUBCHEM_CACTVS_ROTATABLE_BOND>
8

> <PUBCHEM_CACTVS_SUBSKEYS>
AAADcfB8MAAAAAAAAAAAAAAAAAAAAAAAAAAwYMAAAAAAAAABUAAAGgAACAAADwSAmAAyBoAAAgCAAiBCAAACAAAgIAAAiAAGCIgIJiKCERKAcAAkwBEImAeAwPAP4AADAAAYAADAAAYAADAAAAAAAAAAAA==

> <PUBCHEM_IUPAC_OPENEYE_NAME>
4-[3,3-bis(5-tert-butyl-4-hydroxy-2-methyl-phenyl)-1-methyl-propyl]-2-tert-butyl-5-methyl-phenol

> <PUBCHEM_IUPAC_CAS_NAME>
4-[4,4-bis(5-tert-butyl-4-hydroxy-2-methylphenyl)butan-2-yl]-2-tert-butyl-5-methylphenol

> <PUBCHEM_IUPAC_NAME_MARKUP>
4-[4,4-bis(5-<I>tert</I>-butyl-4-hydroxy-2-methylphenyl)butan-2-yl]-2-<I>tert</I>-butyl-5-methylphenol

> <PUBCHEM_IUPAC_NAME>
4-[4,4-bis(5-tert-butyl-4-hydroxy-2-methylphenyl)butan-2-yl]-2-tert-butyl-5-methylphenol

> <PUBCHEM_IUPAC_SYSTEMATIC_NAME>
4-[4,4-bis(5-tert-butyl-2-methyl-4-oxidanyl-phenyl)butan-2-yl]-2-tert-butyl-5-methyl-phenol

> <PUBCHEM_IUPAC_TRADITIONAL_NAME>
4-[3,3-bis(5-tert-butyl-4-hydroxy-2-methyl-phenyl)-1-methyl-propyl]-2-tert-butyl-5-methyl-phenol

> <PUBCHEM_IUPAC_INCHI>
InChI=1S/C37H52O3/c1-21(25-18-29(35(5,6)7)32(38)15-22(25)2)14-28(26-19-30(36(8,9)10)33(39)16-23(26)3)27-20-31(37(11,12)13)34(40)17-24(27)4/h15-21,28,38-40H,14H2,1-13H3

> <PUBCHEM_IUPAC_INCHIKEY>
PRWJPWSKLXYEPD-UHFFFAOYSA-N

> <PUBCHEM_XLOGP3_AA>
11.5

> <PUBCHEM_EXACT_MASS>
544.39164552

> <PUBCHEM_MOLECULAR_FORMULA>
C37H52O3

> <PUBCHEM_MOLECULAR_WEIGHT>
544.8

> <PUBCHEM_SMILES>
CC1=CC(=C(C=C1C(C)CC(C2=CC(=C(C=C2C)O)C(C)(C)C)C3=CC(=C(C=C3C)O)C(C)(C)C)C(C)(C)C)O

> <PUBCHEM_OPENEYE_CAN_SMILES>
CC1=CC(=C(C=C1C(C)CC(C2=CC(=C(C=C2C)O)C(C)(C)C)C3=CC(=C(C=C3C)O)C(C)(C)C)C(C)(C)C)O

> <PUBCHEM_OPENEYE_ISO_SMILES>
CC1=CC(=C(C=C1C(C)CC(C2=CC(=C(C=C2C)O)C(C)(C)C)C3=CC(=C(C=C3C)O)C(C)(C)C)C(C)(C)C)O

> <PUBCHEM_CACTVS_TPSA>
60.7

> <PUBCHEM_MONOISOTOPIC_WEIGHT>
544.39164552

> <PUBCHEM_TOTAL_CHARGE>
0

> <PUBCHEM_HEAVY_ATOM_COUNT>
40

> <PUBCHEM_ATOM_DEF_STEREO_COUNT>
0

> <PUBCHEM_ATOM_UDEF_STEREO_COUNT>
1

> <PUBCHEM_BOND_DEF_STEREO_COUNT>
0

> <PUBCHEM_BOND_UDEF_STEREO_COUNT>
0

> <PUBCHEM_ISOTOPIC_ATOM_COUNT>
0

> <PUBCHEM_COMPONENT_COUNT>
1

> <PUBCHEM_CACTVS_TAUTO_COUNT>
-1

> <PUBCHEM_COORDINATE_TYPE>
1
5
255

> <PUBCHEM_BONDANNOTATIONS>
12  14  8
12  23  8
13  15  8
13  24  8
17  25  8
18  26  8
20  21  8
20  27  8
22  28  8
23  25  8
24  26  8
27  28  8
6  16  3
7  14  8
7  17  8
8  15  8
8  18  8
9  21  8
9  22  8

$$$$
