93109
  -OEChem-04042505592D

122121  0     1  0  0  0  0  0999 V2000
   10.6603   -0.8660    0.0000 Sn  0  0  0  0  0  0  0  0  0  0  0  0
   11.5263   -0.3660    0.0000 S   0  0  0  0  0  0  0  0  0  0  0  0
    9.7942   -1.3660    0.0000 S   0  0  0  0  0  0  0  0  0  0  0  0
   10.1603    0.0000    0.0000 S   0  0  0  0  0  0  0  0  0  0  0  0
   14.1244   -0.8660    0.0000 O   0  0  0  0  0  0  0  0  0  0  0  0
    7.1962   -0.8660    0.0000 O   0  0  0  0  0  0  0  0  0  0  0  0
   10.6603    2.5981    0.0000 O   0  0  0  0  0  0  0  0  0  0  0  0
   13.2583    0.6340    0.0000 O   0  0  0  0  0  0  0  0  0  0  0  0
    8.0622   -2.3660    0.0000 O   0  0  0  0  0  0  0  0  0  0  0  0
    9.1602    1.7320    0.0000 O   0  0  0  0  0  0  0  0  0  0  0  0
   15.8564   -0.8660    0.0000 C   0  0  3  0  0  0  0  0  0  0  0  0
    5.4641   -0.8660    0.0000 C   0  0  3  0  0  0  0  0  0  0  0  0
   10.6603    4.3301    0.0000 C   0  0  3  0  0  0  0  0  0  0  0  0
   16.7224   -0.3660    0.0000 C   0  0  0  0  0  0  0  0  0  0  0  0
    4.5981   -1.3660    0.0000 C   0  0  0  0  0  0  0  0  0  0  0  0
   10.1603    5.1962    0.0000 C   0  0  0  0  0  0  0  0  0  0  0  0
   10.6603   -2.5981    0.0000 C   0  0  0  0  0  0  0  0  0  0  0  0
   11.1603   -1.7320    0.0000 C   0  0  0  0  0  0  0  0  0  0  0  0
   11.1603   -3.4641    0.0000 C   0  0  0  0  0  0  0  0  0  0  0  0
   10.6603   -4.3301    0.0000 C   0  0  0  0  0  0  0  0  0  0  0  0
   15.8564   -1.8660    0.0000 C   0  0  0  0  0  0  0  0  0  0  0  0
    5.4641    0.1340    0.0000 C   0  0  0  0  0  0  0  0  0  0  0  0
   11.6603    4.3301    0.0000 C   0  0  0  0  0  0  0  0  0  0  0  0
   17.5885   -0.8660    0.0000 C   0  0  0  0  0  0  0  0  0  0  0  0
    3.7320   -0.8660    0.0000 C   0  0  0  0  0  0  0  0  0  0  0  0
   10.6603    6.0622    0.0000 C   0  0  0  0  0  0  0  0  0  0  0  0
   14.9904   -0.3660    0.0000 C   0  0  0  0  0  0  0  0  0  0  0  0
    6.3301   -1.3660    0.0000 C   0  0  0  0  0  0  0  0  0  0  0  0
   10.1603    3.4641    0.0000 C   0  0  0  0  0  0  0  0  0  0  0  0
   11.1603   -5.1962    0.0000 C   0  0  0  0  0  0  0  0  0  0  0  0
   10.6603   -6.0622    0.0000 C   0  0  0  0  0  0  0  0  0  0  0  0
   18.4545   -0.3660    0.0000 C   0  0  0  0  0  0  0  0  0  0  0  0
    2.8660   -1.3660    0.0000 C   0  0  0  0  0  0  0  0  0  0  0  0
   10.1603    6.9282    0.0000 C   0  0  0  0  0  0  0  0  0  0  0  0
   16.7224   -2.3660    0.0000 C   0  0  0  0  0  0  0  0  0  0  0  0
    4.5981    0.6340    0.0000 C   0  0  0  0  0  0  0  0  0  0  0  0
   12.1603    5.1962    0.0000 C   0  0  0  0  0  0  0  0  0  0  0  0
   11.1603   -6.9282    0.0000 C   0  0  0  0  0  0  0  0  0  0  0  0
   12.3923   -0.8660    0.0000 C   0  0  0  0  0  0  0  0  0  0  0  0
    8.9282   -0.8660    0.0000 C   0  0  0  0  0  0  0  0  0  0  0  0
   10.6603    0.8660    0.0000 C   0  0  0  0  0  0  0  0  0  0  0  0
   19.3205   -0.8660    0.0000 C   0  0  0  0  0  0  0  0  0  0  0  0
    2.0000   -0.8660    0.0000 C   0  0  0  0  0  0  0  0  0  0  0  0
   10.6603    7.7942    0.0000 C   0  0  0  0  0  0  0  0  0  0  0  0
   13.2583   -0.3660    0.0000 C   0  0  0  0  0  0  0  0  0  0  0  0
    8.0622   -1.3660    0.0000 C   0  0  0  0  0  0  0  0  0  0  0  0
   10.1603    1.7320    0.0000 C   0  0  0  0  0  0  0  0  0  0  0  0
   10.6603   -7.7942    0.0000 C   0  0  0  0  0  0  0  0  0  0  0  0
   15.3195   -1.1760    0.0000 H   0  0  0  0  0  0  0  0  0  0  0  0
    6.0010   -0.5560    0.0000 H   0  0  0  0  0  0  0  0  0  0  0  0
   10.9703    4.8671    0.0000 H   0  0  0  0  0  0  0  0  0  0  0  0
   17.1210    0.1089    0.0000 H   0  0  0  0  0  0  0  0  0  0  0  0
   16.3239    0.1089    0.0000 H   0  0  0  0  0  0  0  0  0  0  0  0
    4.1996   -1.8410    0.0000 H   0  0  0  0  0  0  0  0  0  0  0  0
    4.9966   -1.8410    0.0000 H   0  0  0  0  0  0  0  0  0  0  0  0
    9.6853    5.5947    0.0000 H   0  0  0  0  0  0  0  0  0  0  0  0
    9.6853    4.7976    0.0000 H   0  0  0  0  0  0  0  0  0  0  0  0
   10.1853   -2.1996    0.0000 H   0  0  0  0  0  0  0  0  0  0  0  0
   10.1853   -2.9966    0.0000 H   0  0  0  0  0  0  0  0  0  0  0  0
   11.6352   -2.1306    0.0000 H   0  0  0  0  0  0  0  0  0  0  0  0
   11.6352   -1.3335    0.0000 H   0  0  0  0  0  0  0  0  0  0  0  0
   11.6352   -3.8626    0.0000 H   0  0  0  0  0  0  0  0  0  0  0  0
   11.6352   -3.0656    0.0000 H   0  0  0  0  0  0  0  0  0  0  0  0
   10.1853   -3.9316    0.0000 H   0  0  0  0  0  0  0  0  0  0  0  0
   10.1853   -4.7287    0.0000 H   0  0  0  0  0  0  0  0  0  0  0  0
   15.2458   -1.7584    0.0000 H   0  0  0  0  0  0  0  0  0  0  0  0
   15.6444   -2.4486    0.0000 H   0  0  0  0  0  0  0  0  0  0  0  0
    6.0747    0.0263    0.0000 H   0  0  0  0  0  0  0  0  0  0  0  0
    5.6762    0.7166    0.0000 H   0  0  0  0  0  0  0  0  0  0  0  0
   11.5526    3.7196    0.0000 H   0  0  0  0  0  0  0  0  0  0  0  0
   12.2429    4.1181    0.0000 H   0  0  0  0  0  0  0  0  0  0  0  0
   17.1899   -1.3410    0.0000 H   0  0  0  0  0  0  0  0  0  0  0  0
   17.9870   -1.3410    0.0000 H   0  0  0  0  0  0  0  0  0  0  0  0
    4.1306   -0.3911    0.0000 H   0  0  0  0  0  0  0  0  0  0  0  0
    3.3335   -0.3911    0.0000 H   0  0  0  0  0  0  0  0  0  0  0  0
   11.1352    5.6636    0.0000 H   0  0  0  0  0  0  0  0  0  0  0  0
   11.1352    6.4607    0.0000 H   0  0  0  0  0  0  0  0  0  0  0  0
   15.3889    0.1089    0.0000 H   0  0  0  0  0  0  0  0  0  0  0  0
   14.5919    0.1089    0.0000 H   0  0  0  0  0  0  0  0  0  0  0  0
    5.9316   -1.8410    0.0000 H   0  0  0  0  0  0  0  0  0  0  0  0
    6.7287   -1.8410    0.0000 H   0  0  0  0  0  0  0  0  0  0  0  0
    9.6853    3.8626    0.0000 H   0  0  0  0  0  0  0  0  0  0  0  0
    9.6853    3.0656    0.0000 H   0  0  0  0  0  0  0  0  0  0  0  0
   11.6352   -5.5947    0.0000 H   0  0  0  0  0  0  0  0  0  0  0  0
   11.6352   -4.7976    0.0000 H   0  0  0  0  0  0  0  0  0  0  0  0
   10.1853   -5.6636    0.0000 H   0  0  0  0  0  0  0  0  0  0  0  0
   10.1853   -6.4607    0.0000 H   0  0  0  0  0  0  0  0  0  0  0  0
   18.8530    0.1089    0.0000 H   0  0  0  0  0  0  0  0  0  0  0  0
   18.0560    0.1089    0.0000 H   0  0  0  0  0  0  0  0  0  0  0  0
    2.4675   -1.8410    0.0000 H   0  0  0  0  0  0  0  0  0  0  0  0
    3.2646   -1.8410    0.0000 H   0  0  0  0  0  0  0  0  0  0  0  0
    9.6853    7.3267    0.0000 H   0  0  0  0  0  0  0  0  0  0  0  0
    9.6853    6.5297    0.0000 H   0  0  0  0  0  0  0  0  0  0  0  0
   16.4124   -2.9030    0.0000 H   0  0  0  0  0  0  0  0  0  0  0  0
   17.2594   -2.6760    0.0000 H   0  0  0  0  0  0  0  0  0  0  0  0
   17.0324   -1.8291    0.0000 H   0  0  0  0  0  0  0  0  0  0  0  0
    4.9081    1.1709    0.0000 H   0  0  0  0  0  0  0  0  0  0  0  0
    4.0611    0.9440    0.0000 H   0  0  0  0  0  0  0  0  0  0  0  0
    4.2881    0.0970    0.0000 H   0  0  0  0  0  0  0  0  0  0  0  0
   12.6972    4.8862    0.0000 H   0  0  0  0  0  0  0  0  0  0  0  0
   12.4703    5.7331    0.0000 H   0  0  0  0  0  0  0  0  0  0  0  0
   11.6233    5.5062    0.0000 H   0  0  0  0  0  0  0  0  0  0  0  0
   11.6352   -7.3267    0.0000 H   0  0  0  0  0  0  0  0  0  0  0  0
   11.6352   -6.5297    0.0000 H   0  0  0  0  0  0  0  0  0  0  0  0
   11.9938   -1.3410    0.0000 H   0  0  0  0  0  0  0  0  0  0  0  0
   12.7908   -1.3410    0.0000 H   0  0  0  0  0  0  0  0  0  0  0  0
    9.3267   -0.3911    0.0000 H   0  0  0  0  0  0  0  0  0  0  0  0
    8.5297   -0.3911    0.0000 H   0  0  0  0  0  0  0  0  0  0  0  0
   11.1352    0.4675    0.0000 H   0  0  0  0  0  0  0  0  0  0  0  0
   11.1352    1.2646    0.0000 H   0  0  0  0  0  0  0  0  0  0  0  0
   19.0105   -1.4030    0.0000 H   0  0  0  0  0  0  0  0  0  0  0  0
   19.8574   -1.1760    0.0000 H   0  0  0  0  0  0  0  0  0  0  0  0
   19.6305   -0.3291    0.0000 H   0  0  0  0  0  0  0  0  0  0  0  0
    2.3100   -0.3291    0.0000 H   0  0  0  0  0  0  0  0  0  0  0  0
    1.4631   -0.5560    0.0000 H   0  0  0  0  0  0  0  0  0  0  0  0
    1.6900   -1.4030    0.0000 H   0  0  0  0  0  0  0  0  0  0  0  0
   11.1972    7.4842    0.0000 H   0  0  0  0  0  0  0  0  0  0  0  0
   10.9703    8.3312    0.0000 H   0  0  0  0  0  0  0  0  0  0  0  0
   10.1233    8.1042    0.0000 H   0  0  0  0  0  0  0  0  0  0  0  0
   10.1233   -7.4842    0.0000 H   0  0  0  0  0  0  0  0  0  0  0  0
   10.3503   -8.3312    0.0000 H   0  0  0  0  0  0  0  0  0  0  0  0
   11.1972   -8.1042    0.0000 H   0  0  0  0  0  0  0  0  0  0  0  0
  1  2  1  0  0  0  0
  1  3  1  0  0  0  0
  1  4  1  0  0  0  0
  1 18  1  0  0  0  0
  2 39  1  0  0  0  0
  3 40  1  0  0  0  0
  4 41  1  0  0  0  0
  5 27  1  0  0  0  0
  5 45  1  0  0  0  0
  6 28  1  0  0  0  0
  6 46  1  0  0  0  0
  7 29  1  0  0  0  0
  7 47  1  0  0  0  0
  8 45  2  0  0  0  0
  9 46  2  0  0  0  0
 10 47  2  0  0  0  0
 11 14  1  0  0  0  0
 11 21  1  0  0  0  0
 11 27  1  0  0  0  0
 11 49  1  0  0  0  0
 12 15  1  0  0  0  0
 12 22  1  0  0  0  0
 12 28  1  0  0  0  0
 12 50  1  0  0  0  0
 13 16  1  0  0  0  0
 13 23  1  0  0  0  0
 13 29  1  0  0  0  0
 13 51  1  0  0  0  0
 14 24  1  0  0  0  0
 14 52  1  0  0  0  0
 14 53  1  0  0  0  0
 15 25  1  0  0  0  0
 15 54  1  0  0  0  0
 15 55  1  0  0  0  0
 16 26  1  0  0  0  0
 16 56  1  0  0  0  0
 16 57  1  0  0  0  0
 17 18  1  0  0  0  0
 17 19  1  0  0  0  0
 17 58  1  0  0  0  0
 17 59  1  0  0  0  0
 18 60  1  0  0  0  0
 18 61  1  0  0  0  0
 19 20  1  0  0  0  0
 19 62  1  0  0  0  0
 19 63  1  0  0  0  0
 20 30  1  0  0  0  0
 20 64  1  0  0  0  0
 20 65  1  0  0  0  0
 21 35  1  0  0  0  0
 21 66  1  0  0  0  0
 21 67  1  0  0  0  0
 22 36  1  0  0  0  0
 22 68  1  0  0  0  0
 22 69  1  0  0  0  0
 23 37  1  0  0  0  0
 23 70  1  0  0  0  0
 23 71  1  0  0  0  0
 24 32  1  0  0  0  0
 24 72  1  0  0  0  0
 24 73  1  0  0  0  0
 25 33  1  0  0  0  0
 25 74  1  0  0  0  0
 25 75  1  0  0  0  0
 26 34  1  0  0  0  0
 26 76  1  0  0  0  0
 26 77  1  0  0  0  0
 27 78  1  0  0  0  0
 27 79  1  0  0  0  0
 28 80  1  0  0  0  0
 28 81  1  0  0  0  0
 29 82  1  0  0  0  0
 29 83  1  0  0  0  0
 30 31  1  0  0  0  0
 30 84  1  0  0  0  0
 30 85  1  0  0  0  0
 31 38  1  0  0  0  0
 31 86  1  0  0  0  0
 31 87  1  0  0  0  0
 32 42  1  0  0  0  0
 32 88  1  0  0  0  0
 32 89  1  0  0  0  0
 33 43  1  0  0  0  0
 33 90  1  0  0  0  0
 33 91  1  0  0  0  0
 34 44  1  0  0  0  0
 34 92  1  0  0  0  0
 34 93  1  0  0  0  0
 35 94  1  0  0  0  0
 35 95  1  0  0  0  0
 35 96  1  0  0  0  0
 36 97  1  0  0  0  0
 36 98  1  0  0  0  0
 36 99  1  0  0  0  0
 37100  1  0  0  0  0
 37101  1  0  0  0  0
 37102  1  0  0  0  0
 38 48  1  0  0  0  0
 38103  1  0  0  0  0
 38104  1  0  0  0  0
 39 45  1  0  0  0  0
 39105  1  0  0  0  0
 39106  1  0  0  0  0
 40 46  1  0  0  0  0
 40107  1  0  0  0  0
 40108  1  0  0  0  0
 41 47  1  0  0  0  0
 41109  1  0  0  0  0
 41110  1  0  0  0  0
 42111  1  0  0  0  0
 42112  1  0  0  0  0
 42113  1  0  0  0  0
 43114  1  0  0  0  0
 43115  1  0  0  0  0
 43116  1  0  0  0  0
 44117  1  0  0  0  0
 44118  1  0  0  0  0
 44119  1  0  0  0  0
 48120  1  0  0  0  0
 48121  1  0  0  0  0
 48122  1  0  0  0  0
M  END
> <PUBCHEM_COMPOUND_CID>
93109

> <PUBCHEM_COMPOUND_CANONICALIZED>
1

> <PUBCHEM_CACTVS_COMPLEXITY>
714

> <PUBCHEM_CACTVS_HBOND_ACCEPTOR>
9

> <PUBCHEM_CACTVS_HBOND_DONOR>
0

> <PUBCHEM_CACTVS_ROTATABLE_BOND>
37

> <PUBCHEM_CACTVS_SUBSKEYS>
AAADcfB8OABgAAAAAACAAAAAAAAAAAAAAAAAAAAAAAAAAAAAAAAAGgQAAAAADQCkwAKCCAAABAAIAACQCAAAAAAAAAAAAAAAAAAAAAIAAAACAAAEAAAAAAGAwIAOAAAAAAAAAAAAAAAAAAAAAAAAAAAAAA==

> <PUBCHEM_IUPAC_OPENEYE_NAME>
2-ethylhexyl 2-[bis[[2-(2-ethylhexoxy)-2-oxo-ethyl]sulfanyl]-octyl-stannyl]sulfanylacetate

> <PUBCHEM_IUPAC_CAS_NAME>
2-[[bis[[2-(2-ethylhexoxy)-2-oxoethyl]thio]-octylstannyl]thio]acetic acid 2-ethylhexyl ester

> <PUBCHEM_IUPAC_NAME_MARKUP>
2-ethylhexyl 2-[bis[[2-(2-ethylhexoxy)-2-oxoethyl]sulfanyl]-octylstannyl]sulfanylacetate

> <PUBCHEM_IUPAC_NAME>
2-ethylhexyl 2-[bis[[2-(2-ethylhexoxy)-2-oxoethyl]sulfanyl]-octylstannyl]sulfanylacetate

> <PUBCHEM_IUPAC_SYSTEMATIC_NAME>
2-ethylhexyl 2-[bis[[2-(2-ethylhexoxy)-2-oxidanylidene-ethyl]sulfanyl]-octyl-stannyl]sulfanylethanoate

> <PUBCHEM_IUPAC_TRADITIONAL_NAME>
2-[[bis[[2-(2-ethylhexoxy)-2-keto-ethyl]thio]-octyl-stannyl]thio]acetic acid 2-ethylhexyl ester

> <PUBCHEM_IUPAC_INCHI>
InChI=1S/3C10H20O2S.C8H17.Sn/c3*1-3-5-6-9(4-2)7-12-10(11)8-13;1-3-5-7-8-6-4-2;/h3*9,13H,3-8H2,1-2H3;1,3-8H2,2H3;/q;;;;+3/p-3

> <PUBCHEM_IUPAC_INCHIKEY>
VHKGIWUCVBAITR-UHFFFAOYSA-K

> <PUBCHEM_EXACT_MASS>
842.366956

> <PUBCHEM_MOLECULAR_FORMULA>
C38H74O6S3Sn

> <PUBCHEM_MOLECULAR_WEIGHT>
841.9

> <PUBCHEM_SMILES>
CCCCCCCC[Sn](SCC(=O)OCC(CC)CCCC)(SCC(=O)OCC(CC)CCCC)SCC(=O)OCC(CC)CCCC

> <PUBCHEM_OPENEYE_CAN_SMILES>
CCCCCCCC[Sn](SCC(=O)OCC(CC)CCCC)(SCC(=O)OCC(CC)CCCC)SCC(=O)OCC(CC)CCCC

> <PUBCHEM_OPENEYE_ISO_SMILES>
CCCCCCCC[Sn](SCC(=O)OCC(CC)CCCC)(SCC(=O)OCC(CC)CCCC)SCC(=O)OCC(CC)CCCC

> <PUBCHEM_CACTVS_TPSA>
155

> <PUBCHEM_MONOISOTOPIC_WEIGHT>
842.366956

> <PUBCHEM_TOTAL_CHARGE>
0

> <PUBCHEM_HEAVY_ATOM_COUNT>
48

> <PUBCHEM_ATOM_DEF_STEREO_COUNT>
0

> <PUBCHEM_ATOM_UDEF_STEREO_COUNT>
3

> <PUBCHEM_BOND_DEF_STEREO_COUNT>
0

> <PUBCHEM_BOND_UDEF_STEREO_COUNT>
0

> <PUBCHEM_ISOTOPIC_ATOM_COUNT>
0

> <PUBCHEM_COMPONENT_COUNT>
1

> <PUBCHEM_CACTVS_TAUTO_COUNT>
-1

> <PUBCHEM_COORDINATE_TYPE>
1
5
255

> <PUBCHEM_BONDANNOTATIONS>
11  21  3
12  22  3
13  23  3

$$$$
