93115
  -OEChem-04042505342D

126129  0     0  0  0  0  0  0999 V2000
    2.8660    3.6550    0.0000 O   0  0  0  0  0  0  0  0  0  0  0  0
   11.5263    0.6550    0.0000 O   0  0  0  0  0  0  0  0  0  0  0  0
    4.5981   -5.3450    0.0000 O   0  0  0  0  0  0  0  0  0  0  0  0
    8.0622    0.6550    0.0000 O   0  0  0  0  0  0  0  0  0  0  0  0
    4.5981    0.6550    0.0000 O   0  0  0  0  0  0  0  0  0  0  0  0
    6.3301   -2.3450    0.0000 O   0  0  0  0  0  0  0  0  0  0  0  0
    6.3301    0.6550    0.0000 N   0  0  0  0  0  0  0  0  0  0  0  0
    7.1962   -0.8450    0.0000 N   0  0  0  0  0  0  0  0  0  0  0  0
    5.4641   -0.8450    0.0000 N   0  0  0  0  0  0  0  0  0  0  0  0
    2.8660    1.6550    0.0000 C   0  0  0  0  0  0  0  0  0  0  0  0
    9.7942    1.6550    0.0000 C   0  0  0  0  0  0  0  0  0  0  0  0
    6.3301   -4.3450    0.0000 C   0  0  0  0  0  0  0  0  0  0  0  0
    4.5981    4.6550    0.0000 C   0  0  0  0  0  0  0  0  0  0  0  0
   11.5263   -1.3450    0.0000 C   0  0  0  0  0  0  0  0  0  0  0  0
    2.8660   -4.3450    0.0000 C   0  0  0  0  0  0  0  0  0  0  0  0
    3.7320    2.1550    0.0000 C   0  0  0  0  0  0  0  0  0  0  0  0
    9.7942    0.6550    0.0000 C   0  0  0  0  0  0  0  0  0  0  0  0
    5.4641   -3.8450    0.0000 C   0  0  0  0  0  0  0  0  0  0  0  0
    4.5981    3.6550    0.0000 C   0  0  0  0  0  0  0  0  0  0  0  0
   10.6603   -0.8450    0.0000 C   0  0  0  0  0  0  0  0  0  0  0  0
    3.7320   -3.8450    0.0000 C   0  0  0  0  0  0  0  0  0  0  0  0
    5.4641    2.1550    0.0000 C   0  0  0  0  0  0  0  0  0  0  0  0
    8.9282   -0.8450    0.0000 C   0  0  0  0  0  0  0  0  0  0  0  0
    4.5981   -2.3450    0.0000 C   0  0  0  0  0  0  0  0  0  0  0  0
    3.7320    3.1550    0.0000 C   0  0  0  0  0  0  0  0  0  0  0  0
   10.6603    0.1550    0.0000 C   0  0  0  0  0  0  0  0  0  0  0  0
    4.5981   -4.3450    0.0000 C   0  0  0  0  0  0  0  0  0  0  0  0
    6.3301    1.6550    0.0000 C   0  0  0  0  0  0  0  0  0  0  0  0
    8.0622   -1.3450    0.0000 C   0  0  0  0  0  0  0  0  0  0  0  0
    4.5981   -1.3450    0.0000 C   0  0  0  0  0  0  0  0  0  0  0  0
    4.5981    1.6550    0.0000 C   0  0  0  0  0  0  0  0  0  0  0  0
    8.9282    0.1550    0.0000 C   0  0  0  0  0  0  0  0  0  0  0  0
    5.4641   -2.8450    0.0000 C   0  0  0  0  0  0  0  0  0  0  0  0
    5.4641    3.1550    0.0000 C   0  0  0  0  0  0  0  0  0  0  0  0
    9.7942   -1.3450    0.0000 C   0  0  0  0  0  0  0  0  0  0  0  0
    3.7320   -2.8450    0.0000 C   0  0  0  0  0  0  0  0  0  0  0  0
    2.0000    1.1550    0.0000 C   0  0  0  0  0  0  0  0  0  0  0  0
    2.3660    2.5210    0.0000 C   0  0  0  0  0  0  0  0  0  0  0  0
    3.3660    0.7890    0.0000 C   0  0  0  0  0  0  0  0  0  0  0  0
    9.7942    2.6550    0.0000 C   0  0  0  0  0  0  0  0  0  0  0  0
   10.7942    1.6550    0.0000 C   0  0  0  0  0  0  0  0  0  0  0  0
    8.7942    1.6550    0.0000 C   0  0  0  0  0  0  0  0  0  0  0  0
    7.1962   -4.8450    0.0000 C   0  0  0  0  0  0  0  0  0  0  0  0
    5.8301   -5.2110    0.0000 C   0  0  0  0  0  0  0  0  0  0  0  0
    6.8301   -3.4790    0.0000 C   0  0  0  0  0  0  0  0  0  0  0  0
    4.5981    5.6550    0.0000 C   0  0  0  0  0  0  0  0  0  0  0  0
    5.5981    4.6550    0.0000 C   0  0  0  0  0  0  0  0  0  0  0  0
    3.5981    4.6550    0.0000 C   0  0  0  0  0  0  0  0  0  0  0  0
   12.3923   -1.8450    0.0000 C   0  0  0  0  0  0  0  0  0  0  0  0
   11.0263   -2.2110    0.0000 C   0  0  0  0  0  0  0  0  0  0  0  0
   12.0263   -0.4790    0.0000 C   0  0  0  0  0  0  0  0  0  0  0  0
    2.0000   -4.8450    0.0000 C   0  0  0  0  0  0  0  0  0  0  0  0
    2.3660   -3.4790    0.0000 C   0  0  0  0  0  0  0  0  0  0  0  0
    3.3660   -5.2110    0.0000 C   0  0  0  0  0  0  0  0  0  0  0  0
    7.1962    0.1550    0.0000 C   0  0  0  0  0  0  0  0  0  0  0  0
    5.4641    0.1550    0.0000 C   0  0  0  0  0  0  0  0  0  0  0  0
    6.3301   -1.3450    0.0000 C   0  0  0  0  0  0  0  0  0  0  0  0
    6.9407    1.5473    0.0000 H   0  0  0  0  0  0  0  0  0  0  0  0
    6.5422    2.2376    0.0000 H   0  0  0  0  0  0  0  0  0  0  0  0
    7.6636   -1.8200    0.0000 H   0  0  0  0  0  0  0  0  0  0  0  0
    8.4607   -1.8200    0.0000 H   0  0  0  0  0  0  0  0  0  0  0  0
    4.3860   -0.7624    0.0000 H   0  0  0  0  0  0  0  0  0  0  0  0
    3.9875   -1.4527    0.0000 H   0  0  0  0  0  0  0  0  0  0  0  0
    4.5981    1.0350    0.0000 H   0  0  0  0  0  0  0  0  0  0  0  0
    8.3913    0.4650    0.0000 H   0  0  0  0  0  0  0  0  0  0  0  0
    6.0010   -2.5350    0.0000 H   0  0  0  0  0  0  0  0  0  0  0  0
    6.0010    3.4650    0.0000 H   0  0  0  0  0  0  0  0  0  0  0  0
    9.7942   -1.9650    0.0000 H   0  0  0  0  0  0  0  0  0  0  0  0
    3.1951   -2.5350    0.0000 H   0  0  0  0  0  0  0  0  0  0  0  0
    1.6900    1.6919    0.0000 H   0  0  0  0  0  0  0  0  0  0  0  0
    1.4631    0.8450    0.0000 H   0  0  0  0  0  0  0  0  0  0  0  0
    2.3100    0.6181    0.0000 H   0  0  0  0  0  0  0  0  0  0  0  0
    2.9030    2.8310    0.0000 H   0  0  0  0  0  0  0  0  0  0  0  0
    2.0560    3.0580    0.0000 H   0  0  0  0  0  0  0  0  0  0  0  0
    1.8291    2.2110    0.0000 H   0  0  0  0  0  0  0  0  0  0  0  0
    2.8291    0.4790    0.0000 H   0  0  0  0  0  0  0  0  0  0  0  0
    3.6760    0.2520    0.0000 H   0  0  0  0  0  0  0  0  0  0  0  0
    3.9030    1.0990    0.0000 H   0  0  0  0  0  0  0  0  0  0  0  0
   10.4142    2.6550    0.0000 H   0  0  0  0  0  0  0  0  0  0  0  0
    9.7942    3.2750    0.0000 H   0  0  0  0  0  0  0  0  0  0  0  0
    9.1742    2.6550    0.0000 H   0  0  0  0  0  0  0  0  0  0  0  0
   10.7942    1.0350    0.0000 H   0  0  0  0  0  0  0  0  0  0  0  0
   11.4142    1.6550    0.0000 H   0  0  0  0  0  0  0  0  0  0  0  0
   10.7942    2.2750    0.0000 H   0  0  0  0  0  0  0  0  0  0  0  0
    8.7942    2.2750    0.0000 H   0  0  0  0  0  0  0  0  0  0  0  0
    8.1742    1.6550    0.0000 H   0  0  0  0  0  0  0  0  0  0  0  0
    8.7942    1.0350    0.0000 H   0  0  0  0  0  0  0  0  0  0  0  0
    6.8862   -5.3819    0.0000 H   0  0  0  0  0  0  0  0  0  0  0  0
    7.7331   -5.1550    0.0000 H   0  0  0  0  0  0  0  0  0  0  0  0
    7.5062   -4.3081    0.0000 H   0  0  0  0  0  0  0  0  0  0  0  0
    5.2932   -4.9010    0.0000 H   0  0  0  0  0  0  0  0  0  0  0  0
    5.5201   -5.7480    0.0000 H   0  0  0  0  0  0  0  0  0  0  0  0
    6.3671   -5.5210    0.0000 H   0  0  0  0  0  0  0  0  0  0  0  0
    7.3671   -3.7890    0.0000 H   0  0  0  0  0  0  0  0  0  0  0  0
    7.1401   -2.9420    0.0000 H   0  0  0  0  0  0  0  0  0  0  0  0
    6.2932   -3.1690    0.0000 H   0  0  0  0  0  0  0  0  0  0  0  0
    5.2181    5.6550    0.0000 H   0  0  0  0  0  0  0  0  0  0  0  0
    4.5981    6.2750    0.0000 H   0  0  0  0  0  0  0  0  0  0  0  0
    3.9781    5.6550    0.0000 H   0  0  0  0  0  0  0  0  0  0  0  0
    5.5981    4.0350    0.0000 H   0  0  0  0  0  0  0  0  0  0  0  0
    6.2181    4.6550    0.0000 H   0  0  0  0  0  0  0  0  0  0  0  0
    5.5981    5.2750    0.0000 H   0  0  0  0  0  0  0  0  0  0  0  0
    3.5981    5.2750    0.0000 H   0  0  0  0  0  0  0  0  0  0  0  0
    2.9781    4.6550    0.0000 H   0  0  0  0  0  0  0  0  0  0  0  0
    3.5981    4.0350    0.0000 H   0  0  0  0  0  0  0  0  0  0  0  0
   12.0823   -2.3819    0.0000 H   0  0  0  0  0  0  0  0  0  0  0  0
   12.9292   -2.1550    0.0000 H   0  0  0  0  0  0  0  0  0  0  0  0
   12.7023   -1.3081    0.0000 H   0  0  0  0  0  0  0  0  0  0  0  0
   10.4893   -1.9010    0.0000 H   0  0  0  0  0  0  0  0  0  0  0  0
   10.7163   -2.7480    0.0000 H   0  0  0  0  0  0  0  0  0  0  0  0
   11.5632   -2.5210    0.0000 H   0  0  0  0  0  0  0  0  0  0  0  0
   12.5632   -0.7890    0.0000 H   0  0  0  0  0  0  0  0  0  0  0  0
   12.3363    0.0580    0.0000 H   0  0  0  0  0  0  0  0  0  0  0  0
   11.4893   -0.1690    0.0000 H   0  0  0  0  0  0  0  0  0  0  0  0
    1.6900   -4.3081    0.0000 H   0  0  0  0  0  0  0  0  0  0  0  0
    1.4631   -5.1550    0.0000 H   0  0  0  0  0  0  0  0  0  0  0  0
    2.3100   -5.3819    0.0000 H   0  0  0  0  0  0  0  0  0  0  0  0
    2.9030   -3.1690    0.0000 H   0  0  0  0  0  0  0  0  0  0  0  0
    2.0560   -2.9420    0.0000 H   0  0  0  0  0  0  0  0  0  0  0  0
    1.8291   -3.7890    0.0000 H   0  0  0  0  0  0  0  0  0  0  0  0
    2.8291   -5.5210    0.0000 H   0  0  0  0  0  0  0  0  0  0  0  0
    3.6760   -5.7480    0.0000 H   0  0  0  0  0  0  0  0  0  0  0  0
    3.9030   -4.9010    0.0000 H   0  0  0  0  0  0  0  0  0  0  0  0
    2.8660    4.2750    0.0000 H   0  0  0  0  0  0  0  0  0  0  0  0
   12.0632    0.3450    0.0000 H   0  0  0  0  0  0  0  0  0  0  0  0
    4.0611   -5.6550    0.0000 H   0  0  0  0  0  0  0  0  0  0  0  0
  1 25  1  0  0  0  0
  1124  1  0  0  0  0
  2 26  1  0  0  0  0
  2125  1  0  0  0  0
  3 27  1  0  0  0  0
  3126  1  0  0  0  0
  4 55  2  0  0  0  0
  5 56  2  0  0  0  0
  6 57  2  0  0  0  0
  7 28  1  0  0  0  0
  7 55  1  0  0  0  0
  7 56  1  0  0  0  0
  8 29  1  0  0  0  0
  8 55  1  0  0  0  0
  8 57  1  0  0  0  0
  9 30  1  0  0  0  0
  9 56  1  0  0  0  0
  9 57  1  0  0  0  0
 10 16  1  0  0  0  0
 10 37  1  0  0  0  0
 10 38  1  0  0  0  0
 10 39  1  0  0  0  0
 11 17  1  0  0  0  0
 11 40  1  0  0  0  0
 11 41  1  0  0  0  0
 11 42  1  0  0  0  0
 12 18  1  0  0  0  0
 12 43  1  0  0  0  0
 12 44  1  0  0  0  0
 12 45  1  0  0  0  0
 13 19  1  0  0  0  0
 13 46  1  0  0  0  0
 13 47  1  0  0  0  0
 13 48  1  0  0  0  0
 14 20  1  0  0  0  0
 14 49  1  0  0  0  0
 14 50  1  0  0  0  0
 14 51  1  0  0  0  0
 15 21  1  0  0  0  0
 15 52  1  0  0  0  0
 15 53  1  0  0  0  0
 15 54  1  0  0  0  0
 16 25  2  0  0  0  0
 16 31  1  0  0  0  0
 17 26  2  0  0  0  0
 17 32  1  0  0  0  0
 18 27  2  0  0  0  0
 18 33  1  0  0  0  0
 19 25  1  0  0  0  0
 19 34  2  0  0  0  0
 20 26  1  0  0  0  0
 20 35  2  0  0  0  0
 21 27  1  0  0  0  0
 21 36  2  0  0  0  0
 22 28  1  0  0  0  0
 22 31  2  0  0  0  0
 22 34  1  0  0  0  0
 23 29  1  0  0  0  0
 23 32  2  0  0  0  0
 23 35  1  0  0  0  0
 24 30  1  0  0  0  0
 24 33  2  0  0  0  0
 24 36  1  0  0  0  0
 28 58  1  0  0  0  0
 28 59  1  0  0  0  0
 29 60  1  0  0  0  0
 29 61  1  0  0  0  0
 30 62  1  0  0  0  0
 30 63  1  0  0  0  0
 31 64  1  0  0  0  0
 32 65  1  0  0  0  0
 33 66  1  0  0  0  0
 34 67  1  0  0  0  0
 35 68  1  0  0  0  0
 36 69  1  0  0  0  0
 37 70  1  0  0  0  0
 37 71  1  0  0  0  0
 37 72  1  0  0  0  0
 38 73  1  0  0  0  0
 38 74  1  0  0  0  0
 38 75  1  0  0  0  0
 39 76  1  0  0  0  0
 39 77  1  0  0  0  0
 39 78  1  0  0  0  0
 40 79  1  0  0  0  0
 40 80  1  0  0  0  0
 40 81  1  0  0  0  0
 41 82  1  0  0  0  0
 41 83  1  0  0  0  0
 41 84  1  0  0  0  0
 42 85  1  0  0  0  0
 42 86  1  0  0  0  0
 42 87  1  0  0  0  0
 43 88  1  0  0  0  0
 43 89  1  0  0  0  0
 43 90  1  0  0  0  0
 44 91  1  0  0  0  0
 44 92  1  0  0  0  0
 44 93  1  0  0  0  0
 45 94  1  0  0  0  0
 45 95  1  0  0  0  0
 45 96  1  0  0  0  0
 46 97  1  0  0  0  0
 46 98  1  0  0  0  0
 46 99  1  0  0  0  0
 47100  1  0  0  0  0
 47101  1  0  0  0  0
 47102  1  0  0  0  0
 48103  1  0  0  0  0
 48104  1  0  0  0  0
 48105  1  0  0  0  0
 49106  1  0  0  0  0
 49107  1  0  0  0  0
 49108  1  0  0  0  0
 50109  1  0  0  0  0
 50110  1  0  0  0  0
 50111  1  0  0  0  0
 51112  1  0  0  0  0
 51113  1  0  0  0  0
 51114  1  0  0  0  0
 52115  1  0  0  0  0
 52116  1  0  0  0  0
 52117  1  0  0  0  0
 53118  1  0  0  0  0
 53119  1  0  0  0  0
 53120  1  0  0  0  0
 54121  1  0  0  0  0
 54122  1  0  0  0  0
 54123  1  0  0  0  0
M  END
> <PUBCHEM_COMPOUND_CID>
93115

> <PUBCHEM_COMPOUND_CANONICALIZED>
1

> <PUBCHEM_CACTVS_COMPLEXITY>
1170

> <PUBCHEM_CACTVS_HBOND_ACCEPTOR>
6

> <PUBCHEM_CACTVS_HBOND_DONOR>
3

> <PUBCHEM_CACTVS_ROTATABLE_BOND>
12

> <PUBCHEM_CACTVS_SUBSKEYS>
AAADcfB/OAAAAAAAAAAAAAAAAAAAAAAAAAA8YMEAAAAAAAABUAAAHgAACAAADgTBmAQzBoMAAgCIAiBCEACCAAAgIAAAiAAMDIiIJiKCkROEcAhsxzMImAeQ0OIPoAACAAAIAABAAAQAABAAAAAAAAAAAA==

> <PUBCHEM_IUPAC_OPENEYE_NAME>
1,3,5-tris[(3,5-ditert-butyl-4-hydroxy-phenyl)methyl]-1,3,5-triazinane-2,4,6-trione

> <PUBCHEM_IUPAC_CAS_NAME>
1,3,5-tris[(3,5-ditert-butyl-4-hydroxyphenyl)methyl]-1,3,5-triazinane-2,4,6-trione

> <PUBCHEM_IUPAC_NAME_MARKUP>
1,3,5-tris[(3,5-di<I>tert</I>-butyl-4-hydroxyphenyl)methyl]-1,3,5-triazinane-2,4,6-trione

> <PUBCHEM_IUPAC_NAME>
1,3,5-tris[(3,5-ditert-butyl-4-hydroxyphenyl)methyl]-1,3,5-triazinane-2,4,6-trione

> <PUBCHEM_IUPAC_SYSTEMATIC_NAME>
1,3,5-tris[(3,5-ditert-butyl-4-oxidanyl-phenyl)methyl]-1,3,5-triazinane-2,4,6-trione

> <PUBCHEM_IUPAC_TRADITIONAL_NAME>
1,3,5-tris(3,5-ditert-butyl-4-hydroxy-benzyl)isocyanuric acid

> <PUBCHEM_IUPAC_INCHI>
InChI=1S/C48H69N3O6/c1-43(2,3)31-19-28(20-32(37(31)52)44(4,5)6)25-49-40(55)50(26-29-21-33(45(7,8)9)38(53)34(22-29)46(10,11)12)42(57)51(41(49)56)27-30-23-35(47(13,14)15)39(54)36(24-30)48(16,17)18/h19-24,52-54H,25-27H2,1-18H3

> <PUBCHEM_IUPAC_INCHIKEY>
VNQNXQYZMPJLQX-UHFFFAOYSA-N

> <PUBCHEM_XLOGP3_AA>
12.8

> <PUBCHEM_EXACT_MASS>
783.51863693

> <PUBCHEM_MOLECULAR_FORMULA>
C48H69N3O6

> <PUBCHEM_MOLECULAR_WEIGHT>
784.1

> <PUBCHEM_SMILES>
CC(C)(C)C1=CC(=CC(=C1O)C(C)(C)C)CN2C(=O)N(C(=O)N(C2=O)CC3=CC(=C(C(=C3)C(C)(C)C)O)C(C)(C)C)CC4=CC(=C(C(=C4)C(C)(C)C)O)C(C)(C)C

> <PUBCHEM_OPENEYE_CAN_SMILES>
CC(C)(C)C1=CC(=CC(=C1O)C(C)(C)C)CN2C(=O)N(C(=O)N(C2=O)CC3=CC(=C(C(=C3)C(C)(C)C)O)C(C)(C)C)CC4=CC(=C(C(=C4)C(C)(C)C)O)C(C)(C)C

> <PUBCHEM_OPENEYE_ISO_SMILES>
CC(C)(C)C1=CC(=CC(=C1O)C(C)(C)C)CN2C(=O)N(C(=O)N(C2=O)CC3=CC(=C(C(=C3)C(C)(C)C)O)C(C)(C)C)CC4=CC(=C(C(=C4)C(C)(C)C)O)C(C)(C)C

> <PUBCHEM_CACTVS_TPSA>
122

> <PUBCHEM_MONOISOTOPIC_WEIGHT>
783.51863693

> <PUBCHEM_TOTAL_CHARGE>
0

> <PUBCHEM_HEAVY_ATOM_COUNT>
57

> <PUBCHEM_ATOM_DEF_STEREO_COUNT>
0

> <PUBCHEM_ATOM_UDEF_STEREO_COUNT>
0

> <PUBCHEM_BOND_DEF_STEREO_COUNT>
0

> <PUBCHEM_BOND_UDEF_STEREO_COUNT>
0

> <PUBCHEM_ISOTOPIC_ATOM_COUNT>
0

> <PUBCHEM_COMPONENT_COUNT>
1

> <PUBCHEM_CACTVS_TAUTO_COUNT>
-1

> <PUBCHEM_COORDINATE_TYPE>
1
5
255

> <PUBCHEM_BONDANNOTATIONS>
16  25  8
16  31  8
17  26  8
17  32  8
18  27  8
18  33  8
19  25  8
19  34  8
20  26  8
20  35  8
21  27  8
21  36  8
22  31  8
22  34  8
23  32  8
23  35  8
24  33  8
24  36  8
7  55  8
7  56  8
8  55  8
8  57  8
9  56  8
9  57  8

$$$$
