93221
  -OEChem-03212516022D

108111  0     0  0  0  0  0  0999 V2000
   13.6433   -3.1190    0.0000 O   0  0  0  0  0  0  0  0  0  0  0  0
    4.2703   -4.1608    0.0000 O   0  0  0  0  0  0  0  0  0  0  0  0
    8.0546    4.4773    0.0000 O   0  0  0  0  0  0  0  0  0  0  0  0
    8.6561   -2.9341    0.0000 O   0  0  0  0  0  0  0  0  0  0  0  0
   10.3881    0.0658    0.0000 O   0  0  0  0  0  0  0  0  0  0  0  0
    6.9240    0.0658    0.0000 O   0  0  0  0  0  0  0  0  0  0  0  0
    9.5221   -1.4342    0.0000 N   0  0  0  0  0  0  0  0  0  0  0  0
    7.7901   -1.4342    0.0000 N   0  0  0  0  0  0  0  0  0  0  0  0
    8.6561    0.0658    0.0000 N   0  0  0  0  0  0  0  0  0  0  0  0
   12.9594   -4.9983    0.0000 C   0  0  0  0  0  0  0  0  0  0  0  0
    2.9848   -2.6288    0.0000 C   0  0  0  0  0  0  0  0  0  0  0  0
   10.0242    4.8246    0.0000 C   0  0  0  0  0  0  0  0  0  0  0  0
   12.3166   -4.2322    0.0000 C   0  0  0  0  0  0  0  0  0  0  0  0
    3.9696   -2.4551    0.0000 C   0  0  0  0  0  0  0  0  0  0  0  0
    9.6822    3.8849    0.0000 C   0  0  0  0  0  0  0  0  0  0  0  0
   11.0310   -2.7001    0.0000 C   0  0  0  0  0  0  0  0  0  0  0  0
    5.9392   -2.1078    0.0000 C   0  0  0  0  0  0  0  0  0  0  0  0
    8.9981    2.0055    0.0000 C   0  0  0  0  0  0  0  0  0  0  0  0
   10.3881   -1.9342    0.0000 C   0  0  0  0  0  0  0  0  0  0  0  0
    6.9240   -1.9342    0.0000 C   0  0  0  0  0  0  0  0  0  0  0  0
    8.6561    1.0658    0.0000 C   0  0  0  0  0  0  0  0  0  0  0  0
   12.0157   -2.5266    0.0000 C   0  0  0  0  0  0  0  0  0  0  0  0
    5.5972   -3.0474    0.0000 C   0  0  0  0  0  0  0  0  0  0  0  0
    8.3553    2.7716    0.0000 C   0  0  0  0  0  0  0  0  0  0  0  0
   10.6889   -3.6399    0.0000 C   0  0  0  0  0  0  0  0  0  0  0  0
    5.2964   -1.3418    0.0000 C   0  0  0  0  0  0  0  0  0  0  0  0
    9.9829    2.1792    0.0000 C   0  0  0  0  0  0  0  0  0  0  0  0
   12.6585   -3.2926    0.0000 C   0  0  0  0  0  0  0  0  0  0  0  0
    4.6124   -3.2211    0.0000 C   0  0  0  0  0  0  0  0  0  0  0  0
    8.6973    3.7113    0.0000 C   0  0  0  0  0  0  0  0  0  0  0  0
    8.6561   -1.9342    0.0000 C   0  0  0  0  0  0  0  0  0  0  0  0
    9.5221   -0.4342    0.0000 C   0  0  0  0  0  0  0  0  0  0  0  0
    7.7901   -0.4342    0.0000 C   0  0  0  0  0  0  0  0  0  0  0  0
   11.3318   -4.4059    0.0000 C   0  0  0  0  0  0  0  0  0  0  0  0
    4.3116   -1.5154    0.0000 C   0  0  0  0  0  0  0  0  0  0  0  0
   10.3249    3.1189    0.0000 C   0  0  0  0  0  0  0  0  0  0  0  0
   13.6022   -5.7643    0.0000 C   0  0  0  0  0  0  0  0  0  0  0  0
   13.7253   -4.3555    0.0000 C   0  0  0  0  0  0  0  0  0  0  0  0
   12.1933   -5.6411    0.0000 C   0  0  0  0  0  0  0  0  0  0  0  0
    2.0000   -2.8024    0.0000 C   0  0  0  0  0  0  0  0  0  0  0  0
    2.8112   -1.6439    0.0000 C   0  0  0  0  0  0  0  0  0  0  0  0
    3.1585   -3.6136    0.0000 C   0  0  0  0  0  0  0  0  0  0  0  0
   10.3662    5.7643    0.0000 C   0  0  0  0  0  0  0  0  0  0  0  0
    9.0845    5.1666    0.0000 C   0  0  0  0  0  0  0  0  0  0  0  0
   10.9639    4.4826    0.0000 C   0  0  0  0  0  0  0  0  0  0  0  0
   12.3578   -1.5869    0.0000 C   0  0  0  0  0  0  0  0  0  0  0  0
    6.2400   -3.8135    0.0000 C   0  0  0  0  0  0  0  0  0  0  0  0
    7.3705    2.5979    0.0000 C   0  0  0  0  0  0  0  0  0  0  0  0
    9.7041   -3.8135    0.0000 C   0  0  0  0  0  0  0  0  0  0  0  0
    5.6385   -0.4021    0.0000 C   0  0  0  0  0  0  0  0  0  0  0  0
   10.6257    1.4131    0.0000 C   0  0  0  0  0  0  0  0  0  0  0  0
   10.9821   -1.7563    0.0000 H   0  0  0  0  0  0  0  0  0  0  0  0
    9.9896   -2.4091    0.0000 H   0  0  0  0  0  0  0  0  0  0  0  0
    6.7811   -2.5374    0.0000 H   0  0  0  0  0  0  0  0  0  0  0  0
    6.7120   -1.3515    0.0000 H   0  0  0  0  0  0  0  0  0  0  0  0
    8.2051    1.4913    0.0000 H   0  0  0  0  0  0  0  0  0  0  0  0
    9.2667    0.9582    0.0000 H   0  0  0  0  0  0  0  0  0  0  0  0
   11.1197   -4.9885    0.0000 H   0  0  0  0  0  0  0  0  0  0  0  0
    3.9131   -1.0405    0.0000 H   0  0  0  0  0  0  0  0  0  0  0  0
   10.9355    3.2265    0.0000 H   0  0  0  0  0  0  0  0  0  0  0  0
   13.1272   -6.1628    0.0000 H   0  0  0  0  0  0  0  0  0  0  0  0
   14.0007   -6.2393    0.0000 H   0  0  0  0  0  0  0  0  0  0  0  0
   14.0771   -5.3658    0.0000 H   0  0  0  0  0  0  0  0  0  0  0  0
   14.1239   -4.8305    0.0000 H   0  0  0  0  0  0  0  0  0  0  0  0
   14.2003   -3.9570    0.0000 H   0  0  0  0  0  0  0  0  0  0  0  0
   13.3268   -3.8806    0.0000 H   0  0  0  0  0  0  0  0  0  0  0  0
   11.7948   -5.1662    0.0000 H   0  0  0  0  0  0  0  0  0  0  0  0
   11.7184   -6.0396    0.0000 H   0  0  0  0  0  0  0  0  0  0  0  0
   12.5918   -6.1160    0.0000 H   0  0  0  0  0  0  0  0  0  0  0  0
    1.8923   -2.1918    0.0000 H   0  0  0  0  0  0  0  0  0  0  0  0
    1.3894   -2.9101    0.0000 H   0  0  0  0  0  0  0  0  0  0  0  0
    2.1077   -3.4130    0.0000 H   0  0  0  0  0  0  0  0  0  0  0  0
    3.4217   -1.5363    0.0000 H   0  0  0  0  0  0  0  0  0  0  0  0
    2.7035   -1.0334    0.0000 H   0  0  0  0  0  0  0  0  0  0  0  0
    2.2006   -1.7516    0.0000 H   0  0  0  0  0  0  0  0  0  0  0  0
    2.5479   -3.7212    0.0000 H   0  0  0  0  0  0  0  0  0  0  0  0
    3.2661   -4.2241    0.0000 H   0  0  0  0  0  0  0  0  0  0  0  0
    3.7690   -3.5059    0.0000 H   0  0  0  0  0  0  0  0  0  0  0  0
   10.9488    5.5523    0.0000 H   0  0  0  0  0  0  0  0  0  0  0  0
   10.5782    6.3469    0.0000 H   0  0  0  0  0  0  0  0  0  0  0  0
    9.7836    5.9764    0.0000 H   0  0  0  0  0  0  0  0  0  0  0  0
    9.2965    5.7492    0.0000 H   0  0  0  0  0  0  0  0  0  0  0  0
    8.5019    5.3787    0.0000 H   0  0  0  0  0  0  0  0  0  0  0  0
    8.8724    4.5840    0.0000 H   0  0  0  0  0  0  0  0  0  0  0  0
   10.7518    3.9000    0.0000 H   0  0  0  0  0  0  0  0  0  0  0  0
   11.5465    4.2706    0.0000 H   0  0  0  0  0  0  0  0  0  0  0  0
   11.1759    5.0652    0.0000 H   0  0  0  0  0  0  0  0  0  0  0  0
   12.9404   -1.7989    0.0000 H   0  0  0  0  0  0  0  0  0  0  0  0
   12.5698   -1.0042    0.0000 H   0  0  0  0  0  0  0  0  0  0  0  0
   11.7751   -1.3748    0.0000 H   0  0  0  0  0  0  0  0  0  0  0  0
    5.7650   -4.2120    0.0000 H   0  0  0  0  0  0  0  0  0  0  0  0
    6.6385   -4.2885    0.0000 H   0  0  0  0  0  0  0  0  0  0  0  0
    6.7149   -3.4150    0.0000 H   0  0  0  0  0  0  0  0  0  0  0  0
    7.2628    3.2085    0.0000 H   0  0  0  0  0  0  0  0  0  0  0  0
    6.7599    2.4903    0.0000 H   0  0  0  0  0  0  0  0  0  0  0  0
    7.4782    1.9874    0.0000 H   0  0  0  0  0  0  0  0  0  0  0  0
    9.5964   -3.2029    0.0000 H   0  0  0  0  0  0  0  0  0  0  0  0
    9.0935   -3.9212    0.0000 H   0  0  0  0  0  0  0  0  0  0  0  0
    9.8117   -4.4241    0.0000 H   0  0  0  0  0  0  0  0  0  0  0  0
    6.2211   -0.6141    0.0000 H   0  0  0  0  0  0  0  0  0  0  0  0
    5.8505    0.1805    0.0000 H   0  0  0  0  0  0  0  0  0  0  0  0
    5.0559   -0.1900    0.0000 H   0  0  0  0  0  0  0  0  0  0  0  0
   10.1508    1.0146    0.0000 H   0  0  0  0  0  0  0  0  0  0  0  0
   11.0242    0.9382    0.0000 H   0  0  0  0  0  0  0  0  0  0  0  0
   11.1007    1.8117    0.0000 H   0  0  0  0  0  0  0  0  0  0  0  0
   13.8554   -2.5363    0.0000 H   0  0  0  0  0  0  0  0  0  0  0  0
    4.6688   -4.6357    0.0000 H   0  0  0  0  0  0  0  0  0  0  0  0
    7.4440    4.3697    0.0000 H   0  0  0  0  0  0  0  0  0  0  0  0
  1 28  1  0  0  0  0
  1106  1  0  0  0  0
  2 29  1  0  0  0  0
  2107  1  0  0  0  0
  3 30  1  0  0  0  0
  3108  1  0  0  0  0
  4 31  2  0  0  0  0
  5 32  2  0  0  0  0
  6 33  2  0  0  0  0
  7 19  1  0  0  0  0
  7 31  1  0  0  0  0
  7 32  1  0  0  0  0
  8 20  1  0  0  0  0
  8 31  1  0  0  0  0
  8 33  1  0  0  0  0
  9 21  1  0  0  0  0
  9 32  1  0  0  0  0
  9 33  1  0  0  0  0
 10 13  1  0  0  0  0
 10 37  1  0  0  0  0
 10 38  1  0  0  0  0
 10 39  1  0  0  0  0
 11 14  1  0  0  0  0
 11 40  1  0  0  0  0
 11 41  1  0  0  0  0
 11 42  1  0  0  0  0
 12 15  1  0  0  0  0
 12 43  1  0  0  0  0
 12 44  1  0  0  0  0
 12 45  1  0  0  0  0
 13 28  2  0  0  0  0
 13 34  1  0  0  0  0
 14 29  2  0  0  0  0
 14 35  1  0  0  0  0
 15 30  2  0  0  0  0
 15 36  1  0  0  0  0
 16 19  1  0  0  0  0
 16 22  2  0  0  0  0
 16 25  1  0  0  0  0
 17 20  1  0  0  0  0
 17 23  2  0  0  0  0
 17 26  1  0  0  0  0
 18 21  1  0  0  0  0
 18 24  2  0  0  0  0
 18 27  1  0  0  0  0
 19 52  1  0  0  0  0
 19 53  1  0  0  0  0
 20 54  1  0  0  0  0
 20 55  1  0  0  0  0
 21 56  1  0  0  0  0
 21 57  1  0  0  0  0
 22 28  1  0  0  0  0
 22 46  1  0  0  0  0
 23 29  1  0  0  0  0
 23 47  1  0  0  0  0
 24 30  1  0  0  0  0
 24 48  1  0  0  0  0
 25 34  2  0  0  0  0
 25 49  1  0  0  0  0
 26 35  2  0  0  0  0
 26 50  1  0  0  0  0
 27 36  2  0  0  0  0
 27 51  1  0  0  0  0
 34 58  1  0  0  0  0
 35 59  1  0  0  0  0
 36 60  1  0  0  0  0
 37 61  1  0  0  0  0
 37 62  1  0  0  0  0
 37 63  1  0  0  0  0
 38 64  1  0  0  0  0
 38 65  1  0  0  0  0
 38 66  1  0  0  0  0
 39 67  1  0  0  0  0
 39 68  1  0  0  0  0
 39 69  1  0  0  0  0
 40 70  1  0  0  0  0
 40 71  1  0  0  0  0
 40 72  1  0  0  0  0
 41 73  1  0  0  0  0
 41 74  1  0  0  0  0
 41 75  1  0  0  0  0
 42 76  1  0  0  0  0
 42 77  1  0  0  0  0
 42 78  1  0  0  0  0
 43 79  1  0  0  0  0
 43 80  1  0  0  0  0
 43 81  1  0  0  0  0
 44 82  1  0  0  0  0
 44 83  1  0  0  0  0
 44 84  1  0  0  0  0
 45 85  1  0  0  0  0
 45 86  1  0  0  0  0
 45 87  1  0  0  0  0
 46 88  1  0  0  0  0
 46 89  1  0  0  0  0
 46 90  1  0  0  0  0
 47 91  1  0  0  0  0
 47 92  1  0  0  0  0
 47 93  1  0  0  0  0
 48 94  1  0  0  0  0
 48 95  1  0  0  0  0
 48 96  1  0  0  0  0
 49 97  1  0  0  0  0
 49 98  1  0  0  0  0
 49 99  1  0  0  0  0
 50100  1  0  0  0  0
 50101  1  0  0  0  0
 50102  1  0  0  0  0
 51103  1  0  0  0  0
 51104  1  0  0  0  0
 51105  1  0  0  0  0
M  END
> <PUBCHEM_COMPOUND_CID>
93221

> <PUBCHEM_COMPOUND_CANONICALIZED>
1

> <PUBCHEM_CACTVS_COMPLEXITY>
1090

> <PUBCHEM_CACTVS_HBOND_ACCEPTOR>
6

> <PUBCHEM_CACTVS_HBOND_DONOR>
3

> <PUBCHEM_CACTVS_ROTATABLE_BOND>
9

> <PUBCHEM_CACTVS_SUBSKEYS>
AAADcfB/OAAAAAAAAAAAAAAAAAAAAAAAAAA8YMEAAAAAAAABUAAAHgAACAAADgTBmAQzBoMAAgCIAiBCEACCAAAgIAAAiAAMDIiIJiKCkROEcAhsxzMImAewwPAP4AADAAAYAADAAAYAADAAAAAAAAAAAA==

> <PUBCHEM_IUPAC_OPENEYE_NAME>
1,3,5-tris[(4-tert-butyl-3-hydroxy-2,6-dimethyl-phenyl)methyl]-1,3,5-triazinane-2,4,6-trione

> <PUBCHEM_IUPAC_CAS_NAME>
1,3,5-tris[(4-tert-butyl-3-hydroxy-2,6-dimethylphenyl)methyl]-1,3,5-triazinane-2,4,6-trione

> <PUBCHEM_IUPAC_NAME_MARKUP>
1,3,5-tris[(4-<I>tert</I>-butyl-3-hydroxy-2,6-dimethylphenyl)methyl]-1,3,5-triazinane-2,4,6-trione

> <PUBCHEM_IUPAC_NAME>
1,3,5-tris[(4-tert-butyl-3-hydroxy-2,6-dimethylphenyl)methyl]-1,3,5-triazinane-2,4,6-trione

> <PUBCHEM_IUPAC_SYSTEMATIC_NAME>
1,3,5-tris[(4-tert-butyl-2,6-dimethyl-3-oxidanyl-phenyl)methyl]-1,3,5-triazinane-2,4,6-trione

> <PUBCHEM_IUPAC_TRADITIONAL_NAME>
1,3,5-tris(4-tert-butyl-3-hydroxy-2,6-dimethyl-benzyl)isocyanuric acid

> <PUBCHEM_IUPAC_INCHI>
InChI=1S/C42H57N3O6/c1-22-16-31(40(7,8)9)34(46)25(4)28(22)19-43-37(49)44(20-29-23(2)17-32(41(10,11)12)35(47)26(29)5)39(51)45(38(43)50)21-30-24(3)18-33(42(13,14)15)36(48)27(30)6/h16-18,46-48H,19-21H2,1-15H3

> <PUBCHEM_IUPAC_INCHIKEY>
XYXJKPCGSGVSBO-UHFFFAOYSA-N

> <PUBCHEM_XLOGP3_AA>
10

> <PUBCHEM_EXACT_MASS>
699.42473655

> <PUBCHEM_MOLECULAR_FORMULA>
C42H57N3O6

> <PUBCHEM_MOLECULAR_WEIGHT>
699.9

> <PUBCHEM_SMILES>
CC1=CC(=C(C(=C1CN2C(=O)N(C(=O)N(C2=O)CC3=C(C(=C(C=C3C)C(C)(C)C)O)C)CC4=C(C(=C(C=C4C)C(C)(C)C)O)C)C)O)C(C)(C)C

> <PUBCHEM_OPENEYE_CAN_SMILES>
CC1=CC(=C(C(=C1CN2C(=O)N(C(=O)N(C2=O)CC3=C(C(=C(C=C3C)C(C)(C)C)O)C)CC4=C(C(=C(C=C4C)C(C)(C)C)O)C)C)O)C(C)(C)C

> <PUBCHEM_OPENEYE_ISO_SMILES>
CC1=CC(=C(C(=C1CN2C(=O)N(C(=O)N(C2=O)CC3=C(C(=C(C=C3C)C(C)(C)C)O)C)CC4=C(C(=C(C=C4C)C(C)(C)C)O)C)C)O)C(C)(C)C

> <PUBCHEM_CACTVS_TPSA>
122

> <PUBCHEM_MONOISOTOPIC_WEIGHT>
699.42473655

> <PUBCHEM_TOTAL_CHARGE>
0

> <PUBCHEM_HEAVY_ATOM_COUNT>
51

> <PUBCHEM_ATOM_DEF_STEREO_COUNT>
0

> <PUBCHEM_ATOM_UDEF_STEREO_COUNT>
0

> <PUBCHEM_BOND_DEF_STEREO_COUNT>
0

> <PUBCHEM_BOND_UDEF_STEREO_COUNT>
0

> <PUBCHEM_ISOTOPIC_ATOM_COUNT>
0

> <PUBCHEM_COMPONENT_COUNT>
1

> <PUBCHEM_CACTVS_TAUTO_COUNT>
-1

> <PUBCHEM_COORDINATE_TYPE>
1
5
255

> <PUBCHEM_BONDANNOTATIONS>
13  28  8
13  34  8
14  29  8
14  35  8
15  30  8
15  36  8
16  22  8
16  25  8
17  23  8
17  26  8
18  24  8
18  27  8
22  28  8
23  29  8
24  30  8
25  34  8
26  35  8
27  36  8
7  31  8
7  32  8
8  31  8
8  33  8
9  32  8
9  33  8

$$$$
