94483
  -OEChem-04042505362D

 59 64  0     0  0  0  0  0  0999 V2000
   13.0561    2.0000    0.0000 O   0  0  0  0  0  0  0  0  0  0  0  0
    6.1279   -2.0000    0.0000 O   0  0  0  0  0  0  0  0  0  0  0  0
   17.1840    1.0000    0.0000 O   0  0  0  0  0  0  0  0  0  0  0  0
    2.0000   -1.0000    0.0000 O   0  0  0  0  0  0  0  0  0  0  0  0
   16.9111    2.7553    0.0000 O   0  0  0  0  0  0  0  0  0  0  0  0
    2.2729   -2.7553    0.0000 O   0  0  0  0  0  0  0  0  0  0  0  0
   16.9111   -0.7553    0.0000 O   0  0  0  0  0  0  0  0  0  0  0  0
    2.2729    0.7553    0.0000 O   0  0  0  0  0  0  0  0  0  0  0  0
    9.5920    0.0000    0.0000 C   0  0  0  0  0  0  0  0  0  0  0  0
   10.4580    0.5000    0.0000 C   0  0  0  0  0  0  0  0  0  0  0  0
    8.7260   -0.5000    0.0000 C   0  0  0  0  0  0  0  0  0  0  0  0
    9.0920    0.8660    0.0000 C   0  0  0  0  0  0  0  0  0  0  0  0
   10.0920   -0.8660    0.0000 C   0  0  0  0  0  0  0  0  0  0  0  0
   11.3241    0.0000    0.0000 C   0  0  0  0  0  0  0  0  0  0  0  0
    8.7260   -1.5000    0.0000 C   0  0  0  0  0  0  0  0  0  0  0  0
   10.4580    1.5000    0.0000 C   0  0  0  0  0  0  0  0  0  0  0  0
    7.8600   -0.0000    0.0000 C   0  0  0  0  0  0  0  0  0  0  0  0
   12.1901    0.5000    0.0000 C   0  0  0  0  0  0  0  0  0  0  0  0
    7.8600   -2.0000    0.0000 C   0  0  0  0  0  0  0  0  0  0  0  0
   11.3241    2.0000    0.0000 C   0  0  0  0  0  0  0  0  0  0  0  0
    6.9939   -0.5000    0.0000 C   0  0  0  0  0  0  0  0  0  0  0  0
   12.1901    1.5000    0.0000 C   0  0  0  0  0  0  0  0  0  0  0  0
    6.9939   -1.5000    0.0000 C   0  0  0  0  0  0  0  0  0  0  0  0
   13.9221    1.5000    0.0000 C   0  0  0  0  0  0  0  0  0  0  0  0
    5.2619   -1.5000    0.0000 C   0  0  0  0  0  0  0  0  0  0  0  0
   15.6542    1.5000    0.0000 C   0  0  0  0  0  0  0  0  0  0  0  0
    3.5298   -1.5000    0.0000 C   0  0  0  0  0  0  0  0  0  0  0  0
   14.7882    2.0000    0.0000 C   0  0  0  0  0  0  0  0  0  0  0  0
    4.3958   -2.0000    0.0000 C   0  0  0  0  0  0  0  0  0  0  0  0
   15.6542    0.5000    0.0000 C   0  0  0  0  0  0  0  0  0  0  0  0
    3.5298   -0.5000    0.0000 C   0  0  0  0  0  0  0  0  0  0  0  0
   13.9221    0.5000    0.0000 C   0  0  0  0  0  0  0  0  0  0  0  0
    5.2619   -0.5000    0.0000 C   0  0  0  0  0  0  0  0  0  0  0  0
   14.7882    0.0000    0.0000 C   0  0  0  0  0  0  0  0  0  0  0  0
    4.3958   -0.0000    0.0000 C   0  0  0  0  0  0  0  0  0  0  0  0
   16.6004    1.8047    0.0000 C   0  0  0  0  0  0  0  0  0  0  0  0
    2.5836   -1.8047    0.0000 C   0  0  0  0  0  0  0  0  0  0  0  0
   16.6004    0.1953    0.0000 C   0  0  0  0  0  0  0  0  0  0  0  0
    2.5836   -0.1953    0.0000 C   0  0  0  0  0  0  0  0  0  0  0  0
    9.6289    1.1760    0.0000 H   0  0  0  0  0  0  0  0  0  0  0  0
    8.7820    1.4030    0.0000 H   0  0  0  0  0  0  0  0  0  0  0  0
    8.5551    0.5560    0.0000 H   0  0  0  0  0  0  0  0  0  0  0  0
    9.5551   -1.1760    0.0000 H   0  0  0  0  0  0  0  0  0  0  0  0
   10.4020   -1.4030    0.0000 H   0  0  0  0  0  0  0  0  0  0  0  0
   10.6289   -0.5560    0.0000 H   0  0  0  0  0  0  0  0  0  0  0  0
   11.3241   -0.6200    0.0000 H   0  0  0  0  0  0  0  0  0  0  0  0
    9.2629   -1.8100    0.0000 H   0  0  0  0  0  0  0  0  0  0  0  0
    9.9211    1.8100    0.0000 H   0  0  0  0  0  0  0  0  0  0  0  0
    7.8600    0.6200    0.0000 H   0  0  0  0  0  0  0  0  0  0  0  0
   12.7270    0.1900    0.0000 H   0  0  0  0  0  0  0  0  0  0  0  0
    7.8600   -2.6200    0.0000 H   0  0  0  0  0  0  0  0  0  0  0  0
   11.3241    2.6200    0.0000 H   0  0  0  0  0  0  0  0  0  0  0  0
    6.4570   -0.1900    0.0000 H   0  0  0  0  0  0  0  0  0  0  0  0
   14.7882    2.6200    0.0000 H   0  0  0  0  0  0  0  0  0  0  0  0
    4.3958   -2.6200    0.0000 H   0  0  0  0  0  0  0  0  0  0  0  0
   13.3852    0.1900    0.0000 H   0  0  0  0  0  0  0  0  0  0  0  0
    5.7988   -0.1900    0.0000 H   0  0  0  0  0  0  0  0  0  0  0  0
   14.7882   -0.6200    0.0000 H   0  0  0  0  0  0  0  0  0  0  0  0
    4.3958    0.6200    0.0000 H   0  0  0  0  0  0  0  0  0  0  0  0
  1 22  1  0  0  0  0
  1 24  1  0  0  0  0
  2 23  1  0  0  0  0
  2 25  1  0  0  0  0
  3 36  1  0  0  0  0
  3 38  1  0  0  0  0
  4 37  1  0  0  0  0
  4 39  1  0  0  0  0
  5 36  2  0  0  0  0
  6 37  2  0  0  0  0
  7 38  2  0  0  0  0
  8 39  2  0  0  0  0
  9 10  1  0  0  0  0
  9 11  1  0  0  0  0
  9 12  1  0  0  0  0
  9 13  1  0  0  0  0
 10 14  2  0  0  0  0
 10 16  1  0  0  0  0
 11 15  2  0  0  0  0
 11 17  1  0  0  0  0
 12 40  1  0  0  0  0
 12 41  1  0  0  0  0
 12 42  1  0  0  0  0
 13 43  1  0  0  0  0
 13 44  1  0  0  0  0
 13 45  1  0  0  0  0
 14 18  1  0  0  0  0
 14 46  1  0  0  0  0
 15 19  1  0  0  0  0
 15 47  1  0  0  0  0
 16 20  2  0  0  0  0
 16 48  1  0  0  0  0
 17 21  2  0  0  0  0
 17 49  1  0  0  0  0
 18 22  2  0  0  0  0
 18 50  1  0  0  0  0
 19 23  2  0  0  0  0
 19 51  1  0  0  0  0
 20 22  1  0  0  0  0
 20 52  1  0  0  0  0
 21 23  1  0  0  0  0
 21 53  1  0  0  0  0
 24 28  2  0  0  0  0
 24 32  1  0  0  0  0
 25 29  2  0  0  0  0
 25 33  1  0  0  0  0
 26 28  1  0  0  0  0
 26 30  2  0  0  0  0
 26 36  1  0  0  0  0
 27 29  1  0  0  0  0
 27 31  2  0  0  0  0
 27 37  1  0  0  0  0
 28 54  1  0  0  0  0
 29 55  1  0  0  0  0
 30 34  1  0  0  0  0
 30 38  1  0  0  0  0
 31 35  1  0  0  0  0
 31 39  1  0  0  0  0
 32 34  2  0  0  0  0
 32 56  1  0  0  0  0
 33 35  2  0  0  0  0
 33 57  1  0  0  0  0
 34 58  1  0  0  0  0
 35 59  1  0  0  0  0
M  END
> <PUBCHEM_COMPOUND_CID>
94483

> <PUBCHEM_COMPOUND_CANONICALIZED>
1

> <PUBCHEM_CACTVS_COMPLEXITY>
897

> <PUBCHEM_CACTVS_HBOND_ACCEPTOR>
8

> <PUBCHEM_CACTVS_HBOND_DONOR>
0

> <PUBCHEM_CACTVS_ROTATABLE_BOND>
6

> <PUBCHEM_CACTVS_SUBSKEYS>
AAADceB4PAAAAAAAAAAAAAAAAAAAASJAAAAwYMGAAAAAAEgBVAAAGgAAAAAADgSAmAAyDoAABACIAiDSCAACCAAkIAAIiAEGCMgMJjKENRqCOSCkwBEIqYfL7PzPoAABAAAQAABAAAIAACAAAAAAAAAAAA==

> <PUBCHEM_IUPAC_OPENEYE_NAME>
5-[4-[1-[4-(1,3-dioxoisobenzofuran-5-yl)oxyphenyl]-1-methyl-ethyl]phenoxy]isobenzofuran-1,3-dione

> <PUBCHEM_IUPAC_CAS_NAME>
5-[4-[2-[4-[(1,3-dioxo-5-isobenzofuranyl)oxy]phenyl]propan-2-yl]phenoxy]isobenzofuran-1,3-dione

> <PUBCHEM_IUPAC_NAME_MARKUP>
5-[4-[2-[4-[(1,3-dioxo-2-benzofuran-5-yl)oxy]phenyl]propan-2-yl]phenoxy]-2-benzofuran-1,3-dione

> <PUBCHEM_IUPAC_NAME>
5-[4-[2-[4-[(1,3-dioxo-2-benzofuran-5-yl)oxy]phenyl]propan-2-yl]phenoxy]-2-benzofuran-1,3-dione

> <PUBCHEM_IUPAC_SYSTEMATIC_NAME>
5-[4-[2-[4-[[1,3-bis(oxidanylidene)-2-benzofuran-5-yl]oxy]phenyl]propan-2-yl]phenoxy]-2-benzofuran-1,3-dione

> <PUBCHEM_IUPAC_TRADITIONAL_NAME>
5-[4-[1-[4-(1,3-diketophthalan-5-yl)oxyphenyl]-1-methyl-ethyl]phenoxy]phthalan-1,3-quinone

> <PUBCHEM_IUPAC_INCHI>
InChI=1S/C31H20O8/c1-31(2,17-3-7-19(8-4-17)36-21-11-13-23-25(15-21)29(34)38-27(23)32)18-5-9-20(10-6-18)37-22-12-14-24-26(16-22)30(35)39-28(24)33/h3-16H,1-2H3

> <PUBCHEM_IUPAC_INCHIKEY>
MQAHXEQUBNDFGI-UHFFFAOYSA-N

> <PUBCHEM_XLOGP3_AA>
6.5

> <PUBCHEM_EXACT_MASS>
520.11581759

> <PUBCHEM_MOLECULAR_FORMULA>
C31H20O8

> <PUBCHEM_MOLECULAR_WEIGHT>
520.5

> <PUBCHEM_SMILES>
CC(C)(C1=CC=C(C=C1)OC2=CC3=C(C=C2)C(=O)OC3=O)C4=CC=C(C=C4)OC5=CC6=C(C=C5)C(=O)OC6=O

> <PUBCHEM_OPENEYE_CAN_SMILES>
CC(C)(C1=CC=C(C=C1)OC2=CC3=C(C=C2)C(=O)OC3=O)C4=CC=C(C=C4)OC5=CC6=C(C=C5)C(=O)OC6=O

> <PUBCHEM_OPENEYE_ISO_SMILES>
CC(C)(C1=CC=C(C=C1)OC2=CC3=C(C=C2)C(=O)OC3=O)C4=CC=C(C=C4)OC5=CC6=C(C=C5)C(=O)OC6=O

> <PUBCHEM_CACTVS_TPSA>
105

> <PUBCHEM_MONOISOTOPIC_WEIGHT>
520.11581759

> <PUBCHEM_TOTAL_CHARGE>
0

> <PUBCHEM_HEAVY_ATOM_COUNT>
39

> <PUBCHEM_ATOM_DEF_STEREO_COUNT>
0

> <PUBCHEM_ATOM_UDEF_STEREO_COUNT>
0

> <PUBCHEM_BOND_DEF_STEREO_COUNT>
0

> <PUBCHEM_BOND_UDEF_STEREO_COUNT>
0

> <PUBCHEM_ISOTOPIC_ATOM_COUNT>
0

> <PUBCHEM_COMPONENT_COUNT>
1

> <PUBCHEM_CACTVS_TAUTO_COUNT>
-1

> <PUBCHEM_COORDINATE_TYPE>
1
5
255

> <PUBCHEM_BONDANNOTATIONS>
10  14  8
10  16  8
11  15  8
11  17  8
14  18  8
15  19  8
16  20  8
17  21  8
18  22  8
19  23  8
20  22  8
21  23  8
24  28  8
24  32  8
25  29  8
25  33  8
26  28  8
26  30  8
27  29  8
27  31  8
30  34  8
31  35  8
32  34  8
33  35  8

$$$$
