94623
  -OEChem-04042505432D

 88 88  0     0  0  0  0  0  0999 V2000
    2.8660    6.5000    0.0000 O   0  0  0  0  0  0  0  0  0  0  0  0
    6.3301    3.5000    0.0000 O   0  0  0  0  0  0  0  0  0  0  0  0
    7.1962    5.0000    0.0000 O   0  0  0  0  0  0  0  0  0  0  0  0
    4.5981    7.5000    0.0000 C   0  0  0  0  0  0  0  0  0  0  0  0
    2.8660    4.5000    0.0000 C   0  0  0  0  0  0  0  0  0  0  0  0
    4.5981    6.5000    0.0000 C   0  0  0  0  0  0  0  0  0  0  0  0
    3.7320    5.0000    0.0000 C   0  0  0  0  0  0  0  0  0  0  0  0
    9.7942   -2.5000    0.0000 C   0  0  0  0  0  0  0  0  0  0  0  0
    9.7942   -1.5000    0.0000 C   0  0  0  0  0  0  0  0  0  0  0  0
   10.6603   -3.0000    0.0000 C   0  0  0  0  0  0  0  0  0  0  0  0
    3.7320    6.0000    0.0000 C   0  0  0  0  0  0  0  0  0  0  0  0
    8.9282   -1.0000    0.0000 C   0  0  0  0  0  0  0  0  0  0  0  0
   10.6603   -4.0000    0.0000 C   0  0  0  0  0  0  0  0  0  0  0  0
    8.9282    0.0000    0.0000 C   0  0  0  0  0  0  0  0  0  0  0  0
   11.5263   -4.5000    0.0000 C   0  0  0  0  0  0  0  0  0  0  0  0
    8.0622    0.5000    0.0000 C   0  0  0  0  0  0  0  0  0  0  0  0
   11.5263   -5.5000    0.0000 C   0  0  0  0  0  0  0  0  0  0  0  0
    5.4641    6.0000    0.0000 C   0  0  0  0  0  0  0  0  0  0  0  0
    4.5981    4.5000    0.0000 C   0  0  0  0  0  0  0  0  0  0  0  0
    4.5981    8.5000    0.0000 C   0  0  0  0  0  0  0  0  0  0  0  0
    5.5981    7.5000    0.0000 C   0  0  0  0  0  0  0  0  0  0  0  0
    3.5981    7.5000    0.0000 C   0  0  0  0  0  0  0  0  0  0  0  0
    2.0000    4.0000    0.0000 C   0  0  0  0  0  0  0  0  0  0  0  0
    3.3660    3.6340    0.0000 C   0  0  0  0  0  0  0  0  0  0  0  0
    2.3660    5.3660    0.0000 C   0  0  0  0  0  0  0  0  0  0  0  0
    5.4641    5.0000    0.0000 C   0  0  0  0  0  0  0  0  0  0  0  0
    8.0622    1.5000    0.0000 C   0  0  0  0  0  0  0  0  0  0  0  0
   12.3923   -6.0000    0.0000 C   0  0  0  0  0  0  0  0  0  0  0  0
    7.1962    2.0000    0.0000 C   0  0  0  0  0  0  0  0  0  0  0  0
   12.3923   -7.0000    0.0000 C   0  0  0  0  0  0  0  0  0  0  0  0
    7.1962    3.0000    0.0000 C   0  0  0  0  0  0  0  0  0  0  0  0
    6.3301    4.5000    0.0000 C   0  0  0  0  0  0  0  0  0  0  0  0
   13.2583   -7.5000    0.0000 C   0  0  0  0  0  0  0  0  0  0  0  0
   13.2583   -8.5000    0.0000 C   0  0  0  0  0  0  0  0  0  0  0  0
    9.1836   -2.3923    0.0000 H   0  0  0  0  0  0  0  0  0  0  0  0
    9.5822   -3.0826    0.0000 H   0  0  0  0  0  0  0  0  0  0  0  0
   10.4048   -1.6077    0.0000 H   0  0  0  0  0  0  0  0  0  0  0  0
   10.0063   -0.9174    0.0000 H   0  0  0  0  0  0  0  0  0  0  0  0
   11.2708   -3.1077    0.0000 H   0  0  0  0  0  0  0  0  0  0  0  0
   10.8723   -2.4174    0.0000 H   0  0  0  0  0  0  0  0  0  0  0  0
    8.3176   -0.8923    0.0000 H   0  0  0  0  0  0  0  0  0  0  0  0
    8.7162   -1.5826    0.0000 H   0  0  0  0  0  0  0  0  0  0  0  0
   10.0497   -3.8923    0.0000 H   0  0  0  0  0  0  0  0  0  0  0  0
   10.4482   -4.5826    0.0000 H   0  0  0  0  0  0  0  0  0  0  0  0
    9.5388   -0.1077    0.0000 H   0  0  0  0  0  0  0  0  0  0  0  0
    9.1403    0.5826    0.0000 H   0  0  0  0  0  0  0  0  0  0  0  0
   12.1369   -4.6077    0.0000 H   0  0  0  0  0  0  0  0  0  0  0  0
   11.7383   -3.9174    0.0000 H   0  0  0  0  0  0  0  0  0  0  0  0
    7.4516    0.6077    0.0000 H   0  0  0  0  0  0  0  0  0  0  0  0
    7.8501   -0.0826    0.0000 H   0  0  0  0  0  0  0  0  0  0  0  0
   10.9157   -5.3923    0.0000 H   0  0  0  0  0  0  0  0  0  0  0  0
   11.3142   -6.0826    0.0000 H   0  0  0  0  0  0  0  0  0  0  0  0
    6.0010    6.3100    0.0000 H   0  0  0  0  0  0  0  0  0  0  0  0
    4.5981    3.8800    0.0000 H   0  0  0  0  0  0  0  0  0  0  0  0
    5.2181    8.5000    0.0000 H   0  0  0  0  0  0  0  0  0  0  0  0
    4.5981    9.1200    0.0000 H   0  0  0  0  0  0  0  0  0  0  0  0
    3.9781    8.5000    0.0000 H   0  0  0  0  0  0  0  0  0  0  0  0
    5.5981    6.8800    0.0000 H   0  0  0  0  0  0  0  0  0  0  0  0
    6.2181    7.5000    0.0000 H   0  0  0  0  0  0  0  0  0  0  0  0
    5.5981    8.1200    0.0000 H   0  0  0  0  0  0  0  0  0  0  0  0
    3.5981    8.1200    0.0000 H   0  0  0  0  0  0  0  0  0  0  0  0
    2.9781    7.5000    0.0000 H   0  0  0  0  0  0  0  0  0  0  0  0
    3.5981    6.8800    0.0000 H   0  0  0  0  0  0  0  0  0  0  0  0
    1.6900    4.5369    0.0000 H   0  0  0  0  0  0  0  0  0  0  0  0
    1.4631    3.6900    0.0000 H   0  0  0  0  0  0  0  0  0  0  0  0
    2.3100    3.4631    0.0000 H   0  0  0  0  0  0  0  0  0  0  0  0
    2.8291    3.3240    0.0000 H   0  0  0  0  0  0  0  0  0  0  0  0
    3.6760    3.0970    0.0000 H   0  0  0  0  0  0  0  0  0  0  0  0
    3.9030    3.9440    0.0000 H   0  0  0  0  0  0  0  0  0  0  0  0
    2.9030    5.6760    0.0000 H   0  0  0  0  0  0  0  0  0  0  0  0
    2.0560    5.9030    0.0000 H   0  0  0  0  0  0  0  0  0  0  0  0
    1.8291    5.0560    0.0000 H   0  0  0  0  0  0  0  0  0  0  0  0
    8.6728    1.3923    0.0000 H   0  0  0  0  0  0  0  0  0  0  0  0
    8.2742    2.0826    0.0000 H   0  0  0  0  0  0  0  0  0  0  0  0
   13.0029   -6.1077    0.0000 H   0  0  0  0  0  0  0  0  0  0  0  0
   12.6044   -5.4174    0.0000 H   0  0  0  0  0  0  0  0  0  0  0  0
    6.5856    2.1077    0.0000 H   0  0  0  0  0  0  0  0  0  0  0  0
    6.9841    1.4174    0.0000 H   0  0  0  0  0  0  0  0  0  0  0  0
   11.7817   -6.8923    0.0000 H   0  0  0  0  0  0  0  0  0  0  0  0
   12.1803   -7.5826    0.0000 H   0  0  0  0  0  0  0  0  0  0  0  0
    7.8067    2.8923    0.0000 H   0  0  0  0  0  0  0  0  0  0  0  0
    7.4082    3.5826    0.0000 H   0  0  0  0  0  0  0  0  0  0  0  0
   13.8689   -7.6077    0.0000 H   0  0  0  0  0  0  0  0  0  0  0  0
   13.4704   -6.9174    0.0000 H   0  0  0  0  0  0  0  0  0  0  0  0
    2.8660    7.1200    0.0000 H   0  0  0  0  0  0  0  0  0  0  0  0
   12.6383   -8.5000    0.0000 H   0  0  0  0  0  0  0  0  0  0  0  0
   13.2583   -9.1200    0.0000 H   0  0  0  0  0  0  0  0  0  0  0  0
   13.8783   -8.5000    0.0000 H   0  0  0  0  0  0  0  0  0  0  0  0
  1 11  1  0  0  0  0
  1 85  1  0  0  0  0
  2 31  1  0  0  0  0
  2 32  1  0  0  0  0
  3 32  2  0  0  0  0
  4  6  1  0  0  0  0
  4 20  1  0  0  0  0
  4 21  1  0  0  0  0
  4 22  1  0  0  0  0
  5  7  1  0  0  0  0
  5 23  1  0  0  0  0
  5 24  1  0  0  0  0
  5 25  1  0  0  0  0
  6 11  2  0  0  0  0
  6 18  1  0  0  0  0
  7 11  1  0  0  0  0
  7 19  2  0  0  0  0
  8  9  1  0  0  0  0
  8 10  1  0  0  0  0
  8 35  1  0  0  0  0
  8 36  1  0  0  0  0
  9 12  1  0  0  0  0
  9 37  1  0  0  0  0
  9 38  1  0  0  0  0
 10 13  1  0  0  0  0
 10 39  1  0  0  0  0
 10 40  1  0  0  0  0
 12 14  1  0  0  0  0
 12 41  1  0  0  0  0
 12 42  1  0  0  0  0
 13 15  1  0  0  0  0
 13 43  1  0  0  0  0
 13 44  1  0  0  0  0
 14 16  1  0  0  0  0
 14 45  1  0  0  0  0
 14 46  1  0  0  0  0
 15 17  1  0  0  0  0
 15 47  1  0  0  0  0
 15 48  1  0  0  0  0
 16 27  1  0  0  0  0
 16 49  1  0  0  0  0
 16 50  1  0  0  0  0
 17 28  1  0  0  0  0
 17 51  1  0  0  0  0
 17 52  1  0  0  0  0
 18 26  2  0  0  0  0
 18 53  1  0  0  0  0
 19 26  1  0  0  0  0
 19 54  1  0  0  0  0
 20 55  1  0  0  0  0
 20 56  1  0  0  0  0
 20 57  1  0  0  0  0
 21 58  1  0  0  0  0
 21 59  1  0  0  0  0
 21 60  1  0  0  0  0
 22 61  1  0  0  0  0
 22 62  1  0  0  0  0
 22 63  1  0  0  0  0
 23 64  1  0  0  0  0
 23 65  1  0  0  0  0
 23 66  1  0  0  0  0
 24 67  1  0  0  0  0
 24 68  1  0  0  0  0
 24 69  1  0  0  0  0
 25 70  1  0  0  0  0
 25 71  1  0  0  0  0
 25 72  1  0  0  0  0
 26 32  1  0  0  0  0
 27 29  1  0  0  0  0
 27 73  1  0  0  0  0
 27 74  1  0  0  0  0
 28 30  1  0  0  0  0
 28 75  1  0  0  0  0
 28 76  1  0  0  0  0
 29 31  1  0  0  0  0
 29 77  1  0  0  0  0
 29 78  1  0  0  0  0
 30 33  1  0  0  0  0
 30 79  1  0  0  0  0
 30 80  1  0  0  0  0
 31 81  1  0  0  0  0
 31 82  1  0  0  0  0
 33 34  1  0  0  0  0
 33 83  1  0  0  0  0
 33 84  1  0  0  0  0
 34 86  1  0  0  0  0
 34 87  1  0  0  0  0
 34 88  1  0  0  0  0
M  END
> <PUBCHEM_COMPOUND_CID>
94623

> <PUBCHEM_COMPOUND_CANONICALIZED>
1

> <PUBCHEM_CACTVS_COMPLEXITY>
504

> <PUBCHEM_CACTVS_HBOND_ACCEPTOR>
3

> <PUBCHEM_CACTVS_HBOND_DONOR>
1

> <PUBCHEM_CACTVS_ROTATABLE_BOND>
19

> <PUBCHEM_CACTVS_SUBSKEYS>
AAADcfB4MAAAAAAAAAAAAAAAAAAAAAAAAAAwAAAAAAAAAAABAAAAGgAACAAADgSgmAIyDoAABgCIAiDSCAACAAAkIAAAiAEECMgIJjKCNRqCcQAkwBEIuYeI7PzPoAACAAAIAABAAAQAABAAAAAAAAAAAA==

> <PUBCHEM_IUPAC_OPENEYE_NAME>
hexadecyl 3,5-ditert-butyl-4-hydroxy-benzoate

> <PUBCHEM_IUPAC_CAS_NAME>
3,5-ditert-butyl-4-hydroxybenzoic acid hexadecyl ester

> <PUBCHEM_IUPAC_NAME_MARKUP>
hexadecyl 3,5-di<I>tert</I>-butyl-4-hydroxybenzoate

> <PUBCHEM_IUPAC_NAME>
hexadecyl 3,5-ditert-butyl-4-hydroxybenzoate

> <PUBCHEM_IUPAC_SYSTEMATIC_NAME>
hexadecyl 3,5-ditert-butyl-4-oxidanyl-benzoate

> <PUBCHEM_IUPAC_TRADITIONAL_NAME>
3,5-ditert-butyl-4-hydroxy-benzoic acid cetyl ester

> <PUBCHEM_IUPAC_INCHI>
InChI=1S/C31H54O3/c1-8-9-10-11-12-13-14-15-16-17-18-19-20-21-22-34-29(33)25-23-26(30(2,3)4)28(32)27(24-25)31(5,6)7/h23-24,32H,8-22H2,1-7H3

> <PUBCHEM_IUPAC_INCHIKEY>
NZYMWGXNIUZYRC-UHFFFAOYSA-N

> <PUBCHEM_XLOGP3_AA>
12.5

> <PUBCHEM_EXACT_MASS>
474.40729558

> <PUBCHEM_MOLECULAR_FORMULA>
C31H54O3

> <PUBCHEM_MOLECULAR_WEIGHT>
474.8

> <PUBCHEM_SMILES>
CCCCCCCCCCCCCCCCOC(=O)C1=CC(=C(C(=C1)C(C)(C)C)O)C(C)(C)C

> <PUBCHEM_OPENEYE_CAN_SMILES>
CCCCCCCCCCCCCCCCOC(=O)C1=CC(=C(C(=C1)C(C)(C)C)O)C(C)(C)C

> <PUBCHEM_OPENEYE_ISO_SMILES>
CCCCCCCCCCCCCCCCOC(=O)C1=CC(=C(C(=C1)C(C)(C)C)O)C(C)(C)C

> <PUBCHEM_CACTVS_TPSA>
46.5

> <PUBCHEM_MONOISOTOPIC_WEIGHT>
474.40729558

> <PUBCHEM_TOTAL_CHARGE>
0

> <PUBCHEM_HEAVY_ATOM_COUNT>
34

> <PUBCHEM_ATOM_DEF_STEREO_COUNT>
0

> <PUBCHEM_ATOM_UDEF_STEREO_COUNT>
0

> <PUBCHEM_BOND_DEF_STEREO_COUNT>
0

> <PUBCHEM_BOND_UDEF_STEREO_COUNT>
0

> <PUBCHEM_ISOTOPIC_ATOM_COUNT>
0

> <PUBCHEM_COMPONENT_COUNT>
1

> <PUBCHEM_CACTVS_TAUTO_COUNT>
-1

> <PUBCHEM_COORDINATE_TYPE>
1
5
255

> <PUBCHEM_BONDANNOTATIONS>
18  26  8
19  26  8
6  11  8
6  18  8
7  11  8
7  19  8

$$$$
