9588111
  -OEChem-04042505492D

 77 77  0     0  0  0  0  0  0999 V2000
    6.8990    0.3906    0.0000 Sn  0  0  0  0  0  0  0  0  0  0  0  0
    5.9280    0.6299    0.0000 S   0  0  0  0  0  0  0  0  0  0  0  0
    7.8699    0.6299    0.0000 S   0  0  0  0  0  0  0  0  0  0  0  0
    4.9455    3.2207    0.0000 O   0  0  0  0  0  0  0  0  0  0  0  0
    8.8525    3.2207    0.0000 O   0  0  0  0  0  0  0  0  0  0  0  0
    3.8322    2.1075    0.0000 O   0  0  0  0  0  0  0  0  0  0  0  0
    9.9658    2.1075    0.0000 O   0  0  0  0  0  0  0  0  0  0  0  0
    6.6402   -0.5754    0.0000 C   0  0  0  0  0  0  0  0  0  0  0  0
    7.4726   -0.4286    0.0000 C   0  0  0  0  0  0  0  0  0  0  0  0
    5.6742   -0.8342    0.0000 C   0  0  0  0  0  0  0  0  0  0  0  0
    8.4688   -0.3414    0.0000 C   0  0  0  0  0  0  0  0  0  0  0  0
    5.4154   -1.8001    0.0000 C   0  0  0  0  0  0  0  0  0  0  0  0
    9.0423   -1.1606    0.0000 C   0  0  0  0  0  0  0  0  0  0  0  0
    4.4495   -2.0589    0.0000 C   0  0  0  0  0  0  0  0  0  0  0  0
   10.0385   -1.0734    0.0000 C   0  0  0  0  0  0  0  0  0  0  0  0
    4.1907   -3.0249    0.0000 C   0  0  0  0  0  0  0  0  0  0  0  0
   10.6121   -1.8926    0.0000 C   0  0  0  0  0  0  0  0  0  0  0  0
    3.2247   -3.2837    0.0000 C   0  0  0  0  0  0  0  0  0  0  0  0
   11.6083   -1.8054    0.0000 C   0  0  0  0  0  0  0  0  0  0  0  0
    5.1795    1.2930    0.0000 C   0  0  0  0  0  0  0  0  0  0  0  0
    8.6184    1.2930    0.0000 C   0  0  0  0  0  0  0  0  0  0  0  0
    2.9659   -4.2496    0.0000 C   0  0  0  0  0  0  0  0  0  0  0  0
   12.1819   -2.6246    0.0000 C   0  0  0  0  0  0  0  0  0  0  0  0
    4.8249    2.2280    0.0000 C   0  0  0  0  0  0  0  0  0  0  0  0
    8.9730    2.2280    0.0000 C   0  0  0  0  0  0  0  0  0  0  0  0
    2.0000   -4.5084    0.0000 C   0  0  0  0  0  0  0  0  0  0  0  0
   13.1781   -2.5374    0.0000 C   0  0  0  0  0  0  0  0  0  0  0  0
    6.3990    4.5084    0.0000 C   0  0  0  0  0  0  0  0  0  0  0  0
    7.3990    4.5084    0.0000 C   0  0  0  0  0  0  0  0  0  0  0  0
    5.5135    4.0437    0.0000 C   0  0  0  0  0  0  0  0  0  0  0  0
    8.2844    4.0437    0.0000 C   0  0  0  0  0  0  0  0  0  0  0  0
    6.6942   -1.1930    0.0000 H   0  0  0  0  0  0  0  0  0  0  0  0
    7.2578   -0.6294    0.0000 H   0  0  0  0  0  0  0  0  0  0  0  0
    6.9106   -0.6906    0.0000 H   0  0  0  0  0  0  0  0  0  0  0  0
    7.6330   -1.0275    0.0000 H   0  0  0  0  0  0  0  0  0  0  0  0
    5.6202   -0.2166    0.0000 H   0  0  0  0  0  0  0  0  0  0  0  0
    5.0566   -0.7802    0.0000 H   0  0  0  0  0  0  0  0  0  0  0  0
    9.0307   -0.0794    0.0000 H   0  0  0  0  0  0  0  0  0  0  0  0
    8.3083    0.2574    0.0000 H   0  0  0  0  0  0  0  0  0  0  0  0
    5.4694   -2.4178    0.0000 H   0  0  0  0  0  0  0  0  0  0  0  0
    6.0331   -1.8542    0.0000 H   0  0  0  0  0  0  0  0  0  0  0  0
    8.4804   -1.4226    0.0000 H   0  0  0  0  0  0  0  0  0  0  0  0
    9.2028   -1.7595    0.0000 H   0  0  0  0  0  0  0  0  0  0  0  0
    4.3954   -1.4413    0.0000 H   0  0  0  0  0  0  0  0  0  0  0  0
    3.8318   -2.0049    0.0000 H   0  0  0  0  0  0  0  0  0  0  0  0
   10.6004   -0.8114    0.0000 H   0  0  0  0  0  0  0  0  0  0  0  0
    9.8780   -0.4746    0.0000 H   0  0  0  0  0  0  0  0  0  0  0  0
    4.2447   -3.6425    0.0000 H   0  0  0  0  0  0  0  0  0  0  0  0
    4.8083   -3.0789    0.0000 H   0  0  0  0  0  0  0  0  0  0  0  0
   10.0502   -2.1546    0.0000 H   0  0  0  0  0  0  0  0  0  0  0  0
   10.7726   -2.4915    0.0000 H   0  0  0  0  0  0  0  0  0  0  0  0
    3.1707   -2.6660    0.0000 H   0  0  0  0  0  0  0  0  0  0  0  0
    2.6071   -3.2296    0.0000 H   0  0  0  0  0  0  0  0  0  0  0  0
   12.1702   -1.5434    0.0000 H   0  0  0  0  0  0  0  0  0  0  0  0
   11.4478   -1.2066    0.0000 H   0  0  0  0  0  0  0  0  0  0  0  0
    4.5595    1.2930    0.0000 H   0  0  0  0  0  0  0  0  0  0  0  0
    5.6898    1.6452    0.0000 H   0  0  0  0  0  0  0  0  0  0  0  0
    8.8383    0.7133    0.0000 H   0  0  0  0  0  0  0  0  0  0  0  0
    8.1082    1.6452    0.0000 H   0  0  0  0  0  0  0  0  0  0  0  0
    3.0200   -4.8672    0.0000 H   0  0  0  0  0  0  0  0  0  0  0  0
    3.5836   -4.3036    0.0000 H   0  0  0  0  0  0  0  0  0  0  0  0
   11.6200   -2.8866    0.0000 H   0  0  0  0  0  0  0  0  0  0  0  0
   12.3423   -3.2235    0.0000 H   0  0  0  0  0  0  0  0  0  0  0  0
    1.8395   -3.9096    0.0000 H   0  0  0  0  0  0  0  0  0  0  0  0
    1.4011   -4.6689    0.0000 H   0  0  0  0  0  0  0  0  0  0  0  0
    2.1605   -5.1073    0.0000 H   0  0  0  0  0  0  0  0  0  0  0  0
   13.2321   -3.1551    0.0000 H   0  0  0  0  0  0  0  0  0  0  0  0
   13.7957   -2.4834    0.0000 H   0  0  0  0  0  0  0  0  0  0  0  0
   13.1240   -1.9198    0.0000 H   0  0  0  0  0  0  0  0  0  0  0  0
    6.6188    5.0881    0.0000 H   0  0  0  0  0  0  0  0  0  0  0  0
    6.5474    3.9064    0.0000 H   0  0  0  0  0  0  0  0  0  0  0  0
    7.8631    4.9196    0.0000 H   0  0  0  0  0  0  0  0  0  0  0  0
    7.2506    3.9064    0.0000 H   0  0  0  0  0  0  0  0  0  0  0  0
    5.4388    4.6592    0.0000 H   0  0  0  0  0  0  0  0  0  0  0  0
    5.9247    3.5796    0.0000 H   0  0  0  0  0  0  0  0  0  0  0  0
    8.8864    4.1921    0.0000 H   0  0  0  0  0  0  0  0  0  0  0  0
    7.8733    3.5796    0.0000 H   0  0  0  0  0  0  0  0  0  0  0  0
  1  2  1  0  0  0  0
  1  3  1  0  0  0  0
  1  8  1  0  0  0  0
  1  9  1  0  0  0  0
  2 20  1  0  0  0  0
  3 21  1  0  0  0  0
  4 24  1  0  0  0  0
  4 30  1  0  0  0  0
  5 25  1  0  0  0  0
  5 31  1  0  0  0  0
  6 24  2  0  0  0  0
  7 25  2  0  0  0  0
  8 10  1  0  0  0  0
  8 32  1  0  0  0  0
  8 33  1  0  0  0  0
  9 11  1  0  0  0  0
  9 34  1  0  0  0  0
  9 35  1  0  0  0  0
 10 12  1  0  0  0  0
 10 36  1  0  0  0  0
 10 37  1  0  0  0  0
 11 13  1  0  0  0  0
 11 38  1  0  0  0  0
 11 39  1  0  0  0  0
 12 14  1  0  0  0  0
 12 40  1  0  0  0  0
 12 41  1  0  0  0  0
 13 15  1  0  0  0  0
 13 42  1  0  0  0  0
 13 43  1  0  0  0  0
 14 16  1  0  0  0  0
 14 44  1  0  0  0  0
 14 45  1  0  0  0  0
 15 17  1  0  0  0  0
 15 46  1  0  0  0  0
 15 47  1  0  0  0  0
 16 18  1  0  0  0  0
 16 48  1  0  0  0  0
 16 49  1  0  0  0  0
 17 19  1  0  0  0  0
 17 50  1  0  0  0  0
 17 51  1  0  0  0  0
 18 22  1  0  0  0  0
 18 52  1  0  0  0  0
 18 53  1  0  0  0  0
 19 23  1  0  0  0  0
 19 54  1  0  0  0  0
 19 55  1  0  0  0  0
 20 24  1  0  0  0  0
 20 56  1  0  0  0  0
 20 57  1  0  0  0  0
 21 25  1  0  0  0  0
 21 58  1  0  0  0  0
 21 59  1  0  0  0  0
 22 26  1  0  0  0  0
 22 60  1  0  0  0  0
 22 61  1  0  0  0  0
 23 27  1  0  0  0  0
 23 62  1  0  0  0  0
 23 63  1  0  0  0  0
 26 64  1  0  0  0  0
 26 65  1  0  0  0  0
 26 66  1  0  0  0  0
 27 67  1  0  0  0  0
 27 68  1  0  0  0  0
 27 69  1  0  0  0  0
 28 29  1  0  0  0  0
 28 30  1  0  0  0  0
 28 70  1  0  0  0  0
 28 71  1  0  0  0  0
 29 31  1  0  0  0  0
 29 72  1  0  0  0  0
 29 73  1  0  0  0  0
 30 74  1  0  0  0  0
 30 75  1  0  0  0  0
 31 76  1  0  0  0  0
 31 77  1  0  0  0  0
M  END
> <PUBCHEM_COMPOUND_CID>
9588111

> <PUBCHEM_COMPOUND_CANONICALIZED>
1

> <PUBCHEM_CACTVS_COMPLEXITY>
434

> <PUBCHEM_CACTVS_HBOND_ACCEPTOR>
6

> <PUBCHEM_CACTVS_HBOND_DONOR>
0

> <PUBCHEM_CACTVS_ROTATABLE_BOND>
14

> <PUBCHEM_CACTVS_SUBSKEYS>
AAADcfB4OABgAAAAAACAAAAAAAAAAAAAAAAAAAAAAAAAAAAAAAAAGgQAAAAACACkwAKCCAAABAAIAACQCAAAAAAAAAAAAAAAAAAAAAIAAAACAAAEAAAAAAFAgIAAAAAAAAAAAAAAAAAAAAAAAAAAAAAAAA==

> <PUBCHEM_IUPAC_OPENEYE_NAME>
5,5-dioctyl-1,9-dioxa-4,6-dithia-5-stannacyclotridecane-2,8-dione

> <PUBCHEM_IUPAC_CAS_NAME>
5,5-dioctyl-1,9-dioxa-4,6-dithia-5-stannacyclotridecane-2,8-dione

> <PUBCHEM_IUPAC_NAME_MARKUP>
5,5-dioctyl-1,9-dioxa-4,6-dithia-5-stannacyclotridecane-2,8-dione

> <PUBCHEM_IUPAC_NAME>
5,5-dioctyl-1,9-dioxa-4,6-dithia-5-stannacyclotridecane-2,8-dione

> <PUBCHEM_IUPAC_SYSTEMATIC_NAME>
5,5-dioctyl-1,9-dioxa-4,6-dithia-5-stannacyclotridecane-2,8-dione

> <PUBCHEM_IUPAC_TRADITIONAL_NAME>
5,5-dioctyl-1,9-dioxa-4,6-dithia-5-stannacyclotridecane-2,8-quinone

> <PUBCHEM_IUPAC_INCHI>
InChI=1S/C8H14O4S2.2C8H17.Sn/c9-7(5-13)11-3-1-2-4-12-8(10)6-14;2*1-3-5-7-8-6-4-2;/h13-14H,1-6H2;2*1,3-8H2,2H3;/q;;;+2/p-2

> <PUBCHEM_IUPAC_INCHIKEY>
BWEUIUUOUFUGLN-UHFFFAOYSA-L

> <PUBCHEM_EXACT_MASS>
582.185955

> <PUBCHEM_MOLECULAR_FORMULA>
C24H46O4S2Sn

> <PUBCHEM_MOLECULAR_WEIGHT>
581.5

> <PUBCHEM_SMILES>
CCCCCCCC[Sn]1(SCC(=O)OCCCCOC(=O)CS1)CCCCCCCC

> <PUBCHEM_OPENEYE_CAN_SMILES>
CCCCCCCC[Sn]1(SCC(=O)OCCCCOC(=O)CS1)CCCCCCCC

> <PUBCHEM_OPENEYE_ISO_SMILES>
CCCCCCCC[Sn]1(SCC(=O)OCCCCOC(=O)CS1)CCCCCCCC

> <PUBCHEM_CACTVS_TPSA>
103

> <PUBCHEM_MONOISOTOPIC_WEIGHT>
582.185955

> <PUBCHEM_TOTAL_CHARGE>
0

> <PUBCHEM_HEAVY_ATOM_COUNT>
31

> <PUBCHEM_ATOM_DEF_STEREO_COUNT>
0

> <PUBCHEM_ATOM_UDEF_STEREO_COUNT>
0

> <PUBCHEM_BOND_DEF_STEREO_COUNT>
0

> <PUBCHEM_BOND_UDEF_STEREO_COUNT>
0

> <PUBCHEM_ISOTOPIC_ATOM_COUNT>
0

> <PUBCHEM_COMPONENT_COUNT>
1

> <PUBCHEM_CACTVS_TAUTO_COUNT>
-1

> <PUBCHEM_COORDINATE_TYPE>
1
5
255

$$$$
